 vasp.6.1.0 28Jan20 (build Mar 09 2020 14:40:17) complex                        
  
 executed on             LinuxIFC date 2024.01.20  18:24:58
 running on   64 total cores
 distrk:  each k-point on   64 cores,    1 groups
 distr:  one band on NCORE=  16 cores,    4 groups


--------------------------------------------------------------------------------------------------------


 INCAR:
 POTCAR:    PAW_PBE Al 04Jan2001                  
 POTCAR:    PAW_PBE O 08Apr2002                   
 POTCAR:    PAW_PBE Al 04Jan2001                  
   SHA256 =  17880443556af62b473fe41b62a467bd001ad55d2cabe504a3f22e34d4e9db96 Al/POTCAR             
   COPYR  = (c) Copyright 04Jan2001 Georg Kresse                                                    
   COPYR  = This file is part of the software VASP. Any use, copying, and all other rights are regul
   COPYR  = If you do not have a valid VASP license, you may not use, copy or distribute this file. 
   VRHFIN =Al: s2p1                                                                                 
   LEXCH  = PE                                                                                      
   EATOM  =    53.5387 eV,    3.9350 Ry                                                             
                                                                                                    
   TITEL  = PAW_PBE Al 04Jan2001                                                                    
   LULTRA =        F    use ultrasoft PP ?                                                          
   IUNSCR =        1    unscreen: 0-lin 1-nonlin 2-no                                               
   RPACOR =    1.500    partial core radius                                                         
   POMASS =   26.981; ZVAL   =    3.000    mass and valenz                                          
   RCORE  =    1.900    outmost cutoff radius                                                       
   RWIGS  =    2.650; RWIGS  =    1.402    wigner-seitz radius (au A)                               
   ENMAX  =  240.300; ENMIN  =  180.225 eV                                                          
   ICORE  =        2    local potential                                                             
   LCOR   =        T    correct aug charges                                                         
   LPAW   =        T    paw PP                                                                      
   EAUG   =  291.052                                                                                
   DEXC   =    0.000                                                                                
   RMAX   =    1.939    core radius for proj-oper                                                   
   RAUG   =    1.300    factor for augmentation sphere                                              
   RDEP   =    1.966    radius for radial grids                                                     
   RDEPT  =    1.856    core radius for aug-charge                                                  
                                                                                                    
   Atomic configuration                                                                             
    6 entries                                                                                       
     n  l   j            E        occ.                                                              
     1  0  0.50     -1511.1048   2.0000                                                             
     2  0  0.50      -108.1629   2.0000                                                             
     2  1  1.50       -69.6402   6.0000                                                             
     3  0  0.50        -7.7528   2.0000                                                             
     3  1  1.50        -2.7121   1.0000                                                             
     3  2  2.50        -2.7212   0.0000                                                             
   Description                                                                                      
     l       E           TYP  RCUT    TYP  RCUT                                                     
     0     -7.7528455     23  1.900                                                                 
     0     -3.3096929     23  1.900                                                                 
     1     -2.7120682     23  1.900                                                                 
     1     13.6058260     23  1.900                                                                 
     2     -2.7211652      7  1.900                                                                 
  local pseudopotential read in
  partial core-charges read in
  partial kinetic energy density read in
  atomic valenz-charges read in
  non local Contribution for L=           0  read in
    real space projection operators read in
  non local Contribution for L=           0  read in
    real space projection operators read in
  non local Contribution for L=           1  read in
    real space projection operators read in
  non local Contribution for L=           1  read in
    real space projection operators read in
    PAW grid and wavefunctions read in
 
   number of l-projection  operators is LMAX  =           4
   number of lm-projection operators is LMMAX =           8
 
 POTCAR:    PAW_PBE O 08Apr2002                   
   SHA256 =  818f92134a0a090dccd8ba1447fa70422a3b330e708bb4f08108d8ae51209ddf O/POTCAR              
   COPYR  = (c) Copyright 08Apr2002 Georg Kresse                                                    
   COPYR  = This file is part of the software VASP. Any use, copying, and all other rights are regul
   COPYR  = If you do not have a valid VASP license, you may not use, copy or distribute this file. 
   VRHFIN =O: s2p4                                                                                  
   LEXCH  = PE                                                                                      
   EATOM  =   432.3788 eV,   31.7789 Ry                                                             
                                                                                                    
   TITEL  = PAW_PBE O 08Apr2002                                                                     
   LULTRA =        F    use ultrasoft PP ?                                                          
   IUNSCR =        1    unscreen: 0-lin 1-nonlin 2-no                                               
   RPACOR =    1.200    partial core radius                                                         
   POMASS =   16.000; ZVAL   =    6.000    mass and valenz                                          
   RCORE  =    1.520    outmost cutoff radius                                                       
   RWIGS  =    1.550; RWIGS  =    0.820    wigner-seitz radius (au A)                               
   ENMAX  =  400.000; ENMIN  =  300.000 eV                                                          
   ICORE  =        2    local potential                                                             
   LCOR   =        T    correct aug charges                                                         
   LPAW   =        T    paw PP                                                                      
   EAUG   =  605.392                                                                                
   DEXC   =    0.000                                                                                
   RMAX   =    1.553    core radius for proj-oper                                                   
   RAUG   =    1.300    factor for augmentation sphere                                              
   RDEP   =    1.550    radius for radial grids                                                     
   RDEPT  =    1.329    core radius for aug-charge                                                  
                                                                                                    
   Atomic configuration                                                                             
    4 entries                                                                                       
     n  l   j            E        occ.                                                              
     1  0  0.50      -514.6923   2.0000                                                             
     2  0  0.50       -23.9615   2.0000                                                             
     2  1  0.50        -9.0305   4.0000                                                             
     3  2  1.50        -9.5241   0.0000                                                             
   Description                                                                                      
     l       E           TYP  RCUT    TYP  RCUT                                                     
     0    -23.9615318     23  1.200                                                                 
     0     -9.5240782     23  1.200                                                                 
     1     -9.0304911     23  1.520                                                                 
     1      8.1634956     23  1.520                                                                 
     2     -9.5240782      7  1.500                                                                 
  local pseudopotential read in
  partial core-charges read in
  partial kinetic energy density read in
  kinetic energy density of atom read in
  atomic valenz-charges read in
  non local Contribution for L=           0  read in
    real space projection operators read in
  non local Contribution for L=           0  read in
    real space projection operators read in
  non local Contribution for L=           1  read in
    real space projection operators read in
  non local Contribution for L=           1  read in
    real space projection operators read in
    PAW grid and wavefunctions read in
 
   number of l-projection  operators is LMAX  =           4
   number of lm-projection operators is LMMAX =           8
 
 Optimization of the real space projectors (new method)

 maximal supplied QI-value         = 19.84
 optimisation between [QCUT,QGAM] = [ 10.12, 20.44] = [ 28.68,116.96] Ry 
 Optimized for a Real-space Cutoff    1.23 Angstroem

   l    n(q)    QCUT    max X(q) W(low)/X(q) W(high)/X(q)  e(spline) 
   0      7    10.119   176.870    0.49E-04    0.18E-03    0.39E-07
   0      7    10.119   105.762    0.46E-04    0.18E-03    0.38E-07
   1      7    10.119    55.370    0.30E-03    0.37E-03    0.12E-06
   1      7    10.119    20.208    0.27E-03    0.35E-03    0.11E-06
 Optimization of the real space projectors (new method)

 maximal supplied QI-value         = 24.76
 optimisation between [QCUT,QGAM] = [ 10.15, 20.30] = [ 28.85,115.39] Ry 
 Optimized for a Real-space Cutoff    1.38 Angstroem

   l    n(q)    QCUT    max X(q) W(low)/X(q) W(high)/X(q)  e(spline) 
   0      8    10.150    20.381    0.22E-03    0.32E-03    0.29E-06
   0      8    10.150    15.268    0.23E-03    0.35E-03    0.30E-06
   1      8    10.150     5.964    0.46E-03    0.53E-03    0.21E-06
   1      8    10.150     5.382    0.38E-03    0.45E-03    0.19E-06
  PAW_PBE Al 04Jan2001                  :
 energy of atom  1       EATOM=  -53.5387
 kinetic energy error for atom=    0.0005 (will be added to EATOM!!)
  PAW_PBE O 08Apr2002                   :
 energy of atom  2       EATOM= -432.3788
 kinetic energy error for atom=    0.1156 (will be added to EATOM!!)
 
 
 POSCAR:    Al  O
  positions in cartesian coordinates
  No initial velocities read in
 exchange correlation table for  LEXCH =        8
   RHO(1)=    0.500       N(1)  =     2000
   RHO(2)=  100.500       N(2)  =     4000

 VTST: version 3.2, (02/03/18)

 CHAIN: initializing optimizer
 
 OPT: Using VASP Conjugate-Gradient optimizer
 CHAIN: Read ICHAIN            0
 
 POSCAR:    Al  O
  positions in cartesian coordinates
  No initial velocities read in
 


--------------------------------------------------------------------------------------------------------


 ion  position               nearest neighbor table
   1  0.126  0.016  0.390-  70 1.85  52 1.87  46 1.91  77 1.95  37 1.96  33 2.01   5 2.66  18 2.85
                            20 2.89  31 3.10  29 3.10  10 3.16   9 3.16   6 3.18
   2  0.126  0.516  0.390-  69 1.85  51 1.87  45 1.91  78 1.95  38 1.96  34 2.01   6 2.66  17 2.85
                            19 2.89  32 3.10  30 3.10   9 3.16  10 3.16   5 3.18
   3  0.626  0.016  0.390-  72 1.85  50 1.87  48 1.91  79 1.95  39 1.96  35 2.01   7 2.66  20 2.85
                            18 2.89  29 3.10  31 3.10  12 3.16  11 3.16   8 3.18
   4  0.626  0.516  0.390-  71 1.85  49 1.87  47 1.91  80 1.95  40 1.96  36 2.01   8 2.66  19 2.85
                            17 2.89  30 3.10  32 3.10  11 3.16  12 3.16   7 3.18
   5  0.126  0.234  0.610-  69 1.85  55 1.87  41 1.91  77 1.95  33 1.96  37 2.01   1 2.66  21 2.85
                            23 2.89  27 3.10  25 3.10  13 3.16  14 3.16   2 3.18
   6  0.126  0.734  0.610-  70 1.85  56 1.87  42 1.91  78 1.95  34 1.96  38 2.01   2 2.66  22 2.85
                            24 2.89  28 3.10  26 3.10  14 3.16  13 3.16   1 3.18
   7  0.626  0.234  0.610-  71 1.85  53 1.87  43 1.91  79 1.95  35 1.96  39 2.01   3 2.66  23 2.85
                            21 2.89  25 3.10  27 3.10  15 3.16  16 3.16   4 3.18
   8  0.626  0.734  0.610-  72 1.85  54 1.87  44 1.91  80 1.95  36 1.96  40 2.01   4 2.66  24 2.85
                            22 2.89  26 3.10  28 3.10  16 3.16  15 3.16   3 3.18
   9  0.124  0.266  0.110-  65 1.85  57 1.87  37 1.91  75 1.95  45 1.96  41 2.01  13 2.66  27 2.85
                            25 2.89  21 3.10  23 3.10   2 3.16   1 3.16  14 3.18
  10  0.124  0.766  0.110-  66 1.85  58 1.87  38 1.91  76 1.95  46 1.96  42 2.01  14 2.66  28 2.85
                            26 2.89  22 3.10  24 3.10   1 3.16   2 3.16  13 3.18
  11  0.624  0.266  0.110-  67 1.85  59 1.87  39 1.91  73 1.95  47 1.96  43 2.01  15 2.66  25 2.85
                            27 2.89  23 3.10  21 3.10   4 3.16   3 3.16  16 3.18
  12  0.624  0.766  0.110-  68 1.85  60 1.87  40 1.91  74 1.95  48 1.96  44 2.01  16 2.66  26 2.85
                            28 2.89  24 3.10  22 3.10   3 3.16   4 3.16  15 3.18
  13  0.124  0.484  0.890-  66 1.85  62 1.87  34 1.91  75 1.95  41 1.96  45 2.01   9 2.66  32 2.85
                            30 2.89  17 3.10  19 3.10   5 3.16   6 3.16  10 3.18
  14  0.124  0.984  0.890-  65 1.85  61 1.87  33 1.91  76 1.95  42 1.96  46 2.01  10 2.66  31 2.85
                            29 2.89  18 3.10  20 3.10   6 3.16   5 3.16   9 3.18
  15  0.624  0.484  0.890-  68 1.85  64 1.87  36 1.91  73 1.95  43 1.96  47 2.01  11 2.66  30 2.85
                            32 2.89  19 3.10  17 3.10   7 3.16   8 3.16  12 3.18
  16  0.624  0.984  0.890-  67 1.85  63 1.87  35 1.91  74 1.95  44 1.96  48 2.01  12 2.66  29 2.85
                            31 2.89  20 3.10  18 3.10   8 3.16   7 3.16  11 3.18
  17  0.374  0.484  0.610-  78 1.85  36 1.87  62 1.91  69 1.95  53 1.96  49 2.01  21 2.66   2 2.85
                             4 2.89  13 3.10  15 3.10  25 3.16  26 3.16  22 3.18
  18  0.374  0.984  0.610-  77 1.85  35 1.87  61 1.91  70 1.95  54 1.96  50 2.01  22 2.66   1 2.85
                             3 2.89  14 3.10  16 3.10  26 3.16  25 3.16  21 3.18
  19  0.874  0.484  0.610-  80 1.85  34 1.87  64 1.91  71 1.95  55 1.96  51 2.01  23 2.66   4 2.85
                             2 2.89  15 3.10  13 3.10  27 3.16  28 3.16  24 3.18
  20  0.874  0.984  0.610-  79 1.85  33 1.87  63 1.91  72 1.95  56 1.96  52 2.01  24 2.66   3 2.85
                             1 2.89  16 3.10  14 3.10  28 3.16  27 3.16  23 3.18
  21  0.374  0.266  0.390-  77 1.85  39 1.87  57 1.91  69 1.95  49 1.96  53 2.01  17 2.66   5 2.85
                             7 2.89   9 3.10  11 3.10  30 3.16  29 3.16  18 3.18
  22  0.374  0.766  0.390-  78 1.85  40 1.87  58 1.91  70 1.95  50 1.96  54 2.01  18 2.66   6 2.85
                             8 2.89  10 3.10  12 3.10  29 3.16  30 3.16  17 3.18
  23  0.874  0.266  0.390-  79 1.85  37 1.87  59 1.91  71 1.95  51 1.96  55 2.01  19 2.66   7 2.85
                             5 2.89  11 3.10   9 3.10  32 3.16  31 3.16  20 3.18
  24  0.874  0.766  0.390-  80 1.85  38 1.87  60 1.91  72 1.95  52 1.96  56 2.01  20 2.66   8 2.85
                             6 2.89  12 3.10  10 3.10  31 3.16  32 3.16  19 3.18
  25  0.376  0.234  0.890-  73 1.85  41 1.87  53 1.91  67 1.95  61 1.96  57 2.01  29 2.66  11 2.85
                             9 2.89   7 3.10   5 3.10  17 3.16  18 3.16  30 3.18
  26  0.376  0.734  0.890-  74 1.85  42 1.87  54 1.91  68 1.95  62 1.96  58 2.01  30 2.66  12 2.85
                            10 2.89   8 3.10   6 3.10  18 3.16  17 3.16  29 3.18
  27  0.876  0.234  0.890-  75 1.85  43 1.87  55 1.91  65 1.95  63 1.96  59 2.01  31 2.66   9 2.85
                            11 2.89   5 3.10   7 3.10  19 3.16  20 3.16  32 3.18
  28  0.876  0.734  0.890-  76 1.85  44 1.87  56 1.91  66 1.95  64 1.96  60 2.01  32 2.66  10 2.85
                            12 2.89   6 3.10   8 3.10  20 3.16  19 3.16  31 3.18
  29  0.376  0.016  0.110-  74 1.85  46 1.87  50 1.91  67 1.95  57 1.96  61 2.01  25 2.66  16 2.85
                            14 2.89   3 3.10   1 3.10  22 3.16  21 3.16  26 3.18
  30  0.376  0.516  0.110-  73 1.85  45 1.87  49 1.91  68 1.95  58 1.96  62 2.01  26 2.66  15 2.85
                            13 2.89   4 3.10   2 3.10  22 3.16  21 3.16  25 3.18
  31  0.876  0.016  0.110-  76 1.85  48 1.87  52 1.91  65 1.95  59 1.96  63 2.01  27 2.66  14 2.85
                            16 2.89   1 3.10   3 3.10  24 3.16  23 3.16  28 3.18
  32  0.876  0.516  0.110-  75 1.85  47 1.87  51 1.91  66 1.95  60 1.96  64 2.01  28 2.66  13 2.85
                            15 2.89   2 3.10   4 3.10  24 3.16  23 3.16  27 3.18
  33  0.054  0.051  0.654-  20 1.87  14 1.91   5 1.96   1 2.01
  34  0.054  0.551  0.654-  19 1.87  13 1.91   6 1.96   2 2.01
  35  0.554  0.051  0.654-  18 1.87  16 1.91   7 1.96   3 2.01
  36  0.554  0.551  0.654-  17 1.87  15 1.91   8 1.96   4 2.01
  37  0.054  0.199  0.346-  23 1.87   9 1.91   1 1.96   5 2.01
  38  0.054  0.699  0.346-  24 1.87  10 1.91   2 1.96   6 2.01
  39  0.554  0.199  0.346-  21 1.87  11 1.91   3 1.96   7 2.01
  40  0.554  0.699  0.346-  22 1.87  12 1.91   4 1.96   8 2.01
  41  0.196  0.301  0.846-  25 1.87   5 1.91  13 1.96   9 2.01
  42  0.196  0.801  0.846-  26 1.87   6 1.91  14 1.96  10 2.01
  43  0.696  0.301  0.846-  27 1.87   7 1.91  15 1.96  11 2.01
  44  0.696  0.801  0.846-  28 1.87   8 1.91  16 1.96  12 2.01
  45  0.196  0.449  0.154-  30 1.87   2 1.91   9 1.96  13 2.01
  46  0.196  0.949  0.154-  29 1.87   1 1.91  10 1.96  14 2.01
  47  0.696  0.449  0.154-  32 1.87   4 1.91  11 1.96  15 2.01
  48  0.696  0.949  0.154-  31 1.87   3 1.91  12 1.96  16 2.01
  49  0.446  0.449  0.346-   4 1.87  30 1.91  21 1.96  17 2.01
  50  0.446  0.949  0.346-   3 1.87  29 1.91  22 1.96  18 2.01
  51  0.946  0.449  0.346-   2 1.87  32 1.91  23 1.96  19 2.01
  52  0.946  0.949  0.346-   1 1.87  31 1.91  24 1.96  20 2.01
  53  0.446  0.301  0.654-   7 1.87  25 1.91  17 1.96  21 2.01
  54  0.446  0.801  0.654-   8 1.87  26 1.91  18 1.96  22 2.01
  55  0.946  0.301  0.654-   5 1.87  27 1.91  19 1.96  23 2.01
  56  0.946  0.801  0.654-   6 1.87  28 1.91  20 1.96  24 2.01
  57  0.304  0.199  0.154-   9 1.87  21 1.91  29 1.96  25 2.01
  58  0.304  0.699  0.154-  10 1.87  22 1.91  30 1.96  26 2.01
  59  0.804  0.199  0.154-  11 1.87  23 1.91  31 1.96  27 2.01
  60  0.804  0.699  0.154-  12 1.87  24 1.91  32 1.96  28 2.01
  61  0.304  0.051  0.846-  14 1.87  18 1.91  25 1.96  29 2.01
  62  0.304  0.551  0.846-  13 1.87  17 1.91  26 1.96  30 2.01
  63  0.804  0.051  0.846-  16 1.87  20 1.91  27 1.96  31 2.01
  64  0.804  0.551  0.846-  15 1.87  19 1.91  28 1.96  32 2.01
  65  0.025  0.125  0.000-  14 1.85   9 1.85  27 1.95  31 1.95
  66  0.025  0.625  0.000-  13 1.85  10 1.85  28 1.95  32 1.95
  67  0.525  0.125  0.000-  16 1.85  11 1.85  25 1.95  29 1.95
  68  0.525  0.625  0.000-  15 1.85  12 1.85  26 1.95  30 1.95
  69  0.225  0.375  0.500-   5 1.85   2 1.85  17 1.95  21 1.95
  70  0.225  0.875  0.500-   6 1.85   1 1.85  18 1.95  22 1.95
  71  0.725  0.375  0.500-   7 1.85   4 1.85  19 1.95  23 1.95
  72  0.725  0.875  0.500-   8 1.85   3 1.85  20 1.95  24 1.95
  73  0.475  0.375  0.000-  25 1.85  30 1.85  15 1.95  11 1.95
  74  0.475  0.875  0.000-  29 1.85  26 1.85  16 1.95  12 1.95
  75  0.975  0.375  0.000-  27 1.85  32 1.85  13 1.95   9 1.95
  76  0.975  0.875  0.000-  31 1.85  28 1.85  14 1.95  10 1.95
  77  0.275  0.125  0.500-  18 1.85  21 1.85   5 1.95   1 1.95
  78  0.275  0.625  0.500-  17 1.85  22 1.85   6 1.95   2 1.95
  79  0.775  0.125  0.500-  20 1.85  23 1.85   7 1.95   3 1.95
  80  0.775  0.625  0.500-  19 1.85  24 1.85   8 1.95   4 1.95
 
  LATTYP: Found a simple orthorhombic cell.
 ALAT       =     7.0241627693
 B/A-ratio  =     1.3681187846
 C/A-ratio  =     1.4070302117
  
  Lattice vectors:
  
 A1 = (   0.0000000000,   0.0000000000,   7.0241627693)
 A2 = (  -9.6098890305,   0.0000000000,   0.0000000000)
 A3 = (   0.0000000000,  -9.8832092285,   0.0000000000)


Analysis of symmetry for initial positions (statically):
=====================================================================
 Subroutine PRICEL returns following result:
 
  LATTYP: Found a simple orthorhombic cell.
 ALAT       =     4.8049445155
 B/A-ratio  =     1.0284415791
 C/A-ratio  =     1.4618613694
  
  Lattice vectors:
  
 A1 = (   4.8049445155,   0.0000000000,   0.0000000000)
 A2 = (   0.0000000000,   4.9416047250,   0.0000000000)
 A3 = (   0.0000000000,   0.0000000000,   7.0241627693)
 
   4 primitive cells build up your supercell.
 

 Routine SETGRP: Setting up the symmetry group for a 
 simple orthorhombic supercell.


 Subroutine GETGRP returns: Found  8 space group operations
 (whereof  2 operations were pure point group operations)
 out of a pool of  8 trial point group operations.


The static configuration has the point symmetry S_2 .
 The point group associated with its full space group is D_2h.


Analysis of symmetry for dynamics (positions and initial velocities):
=====================================================================
 Subroutine PRICEL returns following result:
 
  LATTYP: Found a simple orthorhombic cell.
 ALAT       =     4.8049445155
 B/A-ratio  =     1.0284415791
 C/A-ratio  =     1.4618613694
  
  Lattice vectors:
  
 A1 = (   4.8049445155,   0.0000000000,   0.0000000000)
 A2 = (   0.0000000000,   4.9416047250,   0.0000000000)
 A3 = (   0.0000000000,   0.0000000000,   7.0241627693)
 
   4 primitive cells build up your supercell.
 

 Routine SETGRP: Setting up the symmetry group for a 
 simple orthorhombic supercell.


 Subroutine GETGRP returns: Found  8 space group operations
 (whereof  2 operations were pure point group operations)
 out of a pool of  8 trial point group operations.


The dynamic configuration has the point symmetry S_2 .
 The point group associated with its full space group is D_2h.


Analysis of constrained symmetry for selective dynamics:
=====================================================================
 Subroutine PRICEL returns following result:
 
  LATTYP: Found a simple orthorhombic cell.
 ALAT       =     4.8049445155
 B/A-ratio  =     1.0284415791
 C/A-ratio  =     1.4618613694
  
  Lattice vectors:
  
 A1 = (   4.8049445155,   0.0000000000,   0.0000000000)
 A2 = (   0.0000000000,   4.9416047250,   0.0000000000)
 A3 = (   0.0000000000,   0.0000000000,   7.0241627693)
 
   4 primitive cells build up your supercell.
 

 Routine SETGRP: Setting up the symmetry group for a 
 simple orthorhombic supercell.


 Subroutine GETGRP returns: Found  8 space group operations
 (whereof  2 operations were pure point group operations)
 out of a pool of  8 trial point group operations.


The constrained configuration has the point symmetry S_2 .
 The point group associated with its full space group is D_2h.


 Subroutine INISYM returns: Found  8 space group operations
 (whereof  2 operations are pure point group operations),
 and found     4 'primitive' translations


----------------------------------------------------------------------------------------

                                     Primitive cell                                     

  volume of cell :     166.7827

  direct lattice vectors                    reciprocal lattice vectors
     4.804944516  0.000000000  0.000000000     0.208118948  0.000000000  0.000000000
     0.000000000  4.941604725  0.000000000     0.000000000  0.202363413  0.000000000
     0.000000000  0.000000000  7.024162769     0.000000000  0.000000000  0.142365721

  length of vectors
     4.804944516  4.941604725  7.024162769     0.208118948  0.202363413  0.142365721

  position of ions in fractional coordinates (direct lattice)
     0.252300233  0.031396366  0.389988571
     0.252300233  0.468603630  0.610011399
     0.247699767  0.531396355  0.110011406
     0.247699767  0.968603567  0.889988601
     0.747699738  0.968603567  0.610011399
     0.747699738  0.531396355  0.389988571
     0.752300262  0.468603630  0.889988601
     0.752300262  0.031396366  0.110011406
     0.107072756  0.102389751  0.654147685
     0.107072756  0.397610238  0.345852345
     0.392927229  0.602389777  0.845852315
     0.392927229  0.897610145  0.154147640
     0.892927289  0.897610145  0.345852345
     0.892927289  0.602389777  0.654147685
     0.607072711  0.397610238  0.154147640
     0.607072711  0.102389751  0.845852315
     0.050188370  0.249999994  0.000000000
     0.449811637  0.749999961  0.500000000
     0.949811578  0.749999961  0.000000000
     0.550188422  0.249999994  0.500000000

  ion indices of the primitive-cell ions
   primitive index   ion index
                 1           1
                 2           5
                 3          10
                 4          14
                 5          18
                 6          22
                 7          27
                 8          31
                 9          33
                10          37
                11          42
                12          46
                13          52
                14          56
                15          57
                16          61
                17          65
                18          70
                19          76
                20          77

----------------------------------------------------------------------------------------

 
 
 KPOINTS: k-points                                

Automatic generation of k-mesh.
Space group operators:
 irot       det(A)        alpha          n_x          n_y          n_z        tau_x        tau_y        tau_z
    1     1.000000     0.000000     1.000000     0.000000     0.000000     0.000000     0.000000     0.000000
    2    -1.000000     0.000000     1.000000     0.000000     0.000000     0.000000     0.000000     0.000000
    3     1.000000   180.000000     0.000000     1.000000     0.000000     0.250000    -0.250000     0.500000
    4    -1.000000   180.000000     0.000000     1.000000     0.000000     0.250000     0.250000     0.500000
    5     1.000000   180.000000     1.000000     0.000000     0.000000     0.000000     0.250000     0.000000
    6    -1.000000   180.000000     1.000000     0.000000     0.000000     0.000000    -0.250000     0.000000
    7     1.000000   180.000000     0.000000     0.000000     1.000000     0.250000    -0.000000     0.500000
    8    -1.000000   180.000000     0.000000     0.000000     1.000000     0.250000     0.000000     0.500000
 
 Subroutine IBZKPT returns following result:
 ===========================================
 
 Found      8 irreducible k-points:
 
 Following reciprocal coordinates:
            Coordinates               Weight
  0.125000  0.125000  0.125000      8.000000
  0.375000  0.125000  0.125000      8.000000
  0.125000  0.375000  0.125000      8.000000
  0.375000  0.375000  0.125000      8.000000
  0.125000  0.125000  0.375000      8.000000
  0.375000  0.125000  0.375000      8.000000
  0.125000  0.375000  0.375000      8.000000
  0.375000  0.375000  0.375000      8.000000
 
 Following cartesian coordinates:
            Coordinates               Weight
  0.013007  0.012648  0.017796      8.000000
  0.039022  0.012648  0.017796      8.000000
  0.013007  0.037943  0.017796      8.000000
  0.039022  0.037943  0.017796      8.000000
  0.013007  0.012648  0.053387      8.000000
  0.039022  0.012648  0.053387      8.000000
  0.013007  0.037943  0.053387      8.000000
  0.039022  0.037943  0.053387      8.000000
 


--------------------------------------------------------------------------------------------------------




 Dimension of arrays:
   k-points           NKPTS =      8   k-points in BZ     NKDIM =      8   number of bands    NBANDS=    236
   number of dos      NEDOS =    301   number of ions     NIONS =     80
   non local maximal  LDIM  =      4   non local SUM 2l+1 LMDIM =      8
   total plane-waves  NPLWV =  82944
   max r-space proj   IRMAX =   1420   max aug-charges    IRDMAX=   5038
   dimension x,y,z NGX =    48 NGY =   48 NGZ =   36
   dimension x,y,z NGXF=    96 NGYF=   96 NGZF=   72
   support grid    NGXF=    96 NGYF=   96 NGZF=   72
   ions per type =              32  48
   NGX,Y,Z   is equivalent  to a cutoff of   8.30,  8.07,  8.52 a.u.
   NGXF,Y,Z  is equivalent  to a cutoff of  16.61, 16.15, 17.04 a.u.

 SYSTEM =  Alumina_orthorombic_cell_relaxation     
 POSCAR =     Al  O                                

 Startparameter for this run:
   NWRITE =      2    write-flag & timer
   PREC   = normal    normal or accurate (medium, high low for compatibility)
   ISTART =      0    job   : 0-new  1-cont  2-samecut
   ICHARG =      2    charge: 1-file 2-atom 10-const
   ISPIN  =      1    spin polarized calculation?
   LNONCOLLINEAR =      F non collinear calculations
   LSORBIT =      F    spin-orbit coupling
   INIWAV =      1    electr: 0-lowe 1-rand  2-diag
   LASPH  =      F    aspherical Exc in radial PAW
   METAGGA=      F    non-selfconsistent MetaGGA calc.

 Electronic Relaxation 1
   ENCUT  =  400.0 eV  29.40 Ry    5.42 a.u.  15.67 16.12 11.45*2*pi/ulx,y,z
   ENINI  =  400.0     initial cutoff
   ENAUG  =  605.4 eV  augmentation charge cutoff
   NELM   =    100;   NELMIN=  2; NELMDL= -5     # of ELM steps 
   EDIFF  = 0.1E-05   stopping-criterion for ELM
   LREAL  =      T    real-space projection
   NLSPLINE    = F    spline interpolate recip. space projectors
   LCOMPAT=      F    compatible to vasp.4.4
   GGA_COMPAT  = T    GGA compatible to vasp.4.4-vasp.4.6
   LMAXPAW     = -100 max onsite density
   LMAXMIX     =    2 max onsite mixed and CHGCAR
   VOSKOWN=      0    Vosko Wilk Nusair interpolation
   ROPT   =   -0.00050  -0.00050
 Ionic relaxation
   EDIFFG = -.1E-02   stopping-criterion for IOM
   NSW    =    200    number of steps for IOM
   NBLOCK =      1;   KBLOCK =    200    inner block; outer block 
   IBRION =      2    ionic relax: 0-MD 1-quasi-New 2-CG
   NFREE  =      1    steps in history (QN), initial steepest desc. (CG)
   ISIF   =      3    stress and relaxation
   IWAVPR =     11    prediction:  0-non 1-charg 2-wave 3-comb
   ISYM   =      2    0-nonsym 1-usesym 2-fastsym
   LCORR  =      T    Harris-Foulkes like correction to forces

   POTIM  = 0.5000    time-step for ionic-motion
   TEIN   =    0.0    initial temperature
   TEBEG  =    0.0;   TEEND  =   0.0 temperature during run
   SMASS  =  -3.00    Nose mass-parameter (am)
   estimated Nose-frequenzy (Omega)   =  0.10E-29 period in steps = 0.13E+47 mass=  -0.211E-26a.u.
   SCALEE = 1.0000    scale energy and forces
   NPACO  =    256;   APACO  = 16.0  distance and # of slots for P.C.
   PSTRESS=    0.0 pullay stress

  Mass of Ions in am
   POMASS =  26.98 16.00
  Ionic Valenz
   ZVAL   =   3.00  6.00
  Atomic Wigner-Seitz radii
   RWIGS  =  -1.00 -1.00
  virtual crystal weights 
   VCA    =   1.00  1.00
   NELECT =     384.0000    total number of electrons
   NUPDOWN=      -1.0000    fix difference up-down

 DOS related values:
   EMIN   =  10.00;   EMAX   =-10.00  energy-range for DOS
   EFERMI =   0.00
   ISMEAR =     1;   SIGMA  =   0.03  broadening in eV -4-tet -1-fermi 0-gaus

 Electronic relaxation 2 (details)
   IALGO  =     38    algorithm
   LDIAG  =      T    sub-space diagonalisation (order eigenvalues)
   LSUBROT=      F    optimize rotation matrix (better conditioning)
   TURBO    =      0    0=normal 1=particle mesh
   IRESTART =      0    0=no restart 2=restart with 2 vectors
   NREBOOT  =      0    no. of reboots
   NMIN     =      0    reboot dimension
   EREF     =   0.00    reference energy to select bands
   IMIX   =      4    mixing-type and parameters
     AMIX     =   0.40;   BMIX     =  1.00
     AMIX_MAG =   1.60;   BMIX_MAG =  1.00
     AMIN     =   0.10
     WC   =   100.;   INIMIX=   1;  MIXPRE=   1;  MAXMIX= -45

 Intra band minimization:
   WEIMIN = 0.0010     energy-eigenvalue tresh-hold
   EBREAK =  0.11E-08  absolut break condition
   DEPER  =   0.30     relativ break condition  

   TIME   =   0.40     timestep for ELM

  volume/ion in A,a.u.               =       8.34        56.28
  Fermi-wavevector in a.u.,A,eV,Ry     =   1.361805  2.573438 25.232180  1.854513
  Thomas-Fermi vector in A             =   2.488349
 
 Write flags
   LWAVE        =      T    write WAVECAR
   LDOWNSAMPLE  =      F    k-point downsampling of WAVECAR
   LCHARG       =      T    write CHGCAR
   LVTOT        =      F    write LOCPOT, total local potential
   LVHAR        =      F    write LOCPOT, Hartree potential only
   LELF         =      F    write electronic localiz. function (ELF)
   LORBIT       =      0    0 simple, 1 ext, 2 COOP (PROOUT), +10 PAW based schemes


 Dipole corrections
   LMONO  =      F    monopole corrections only (constant potential shift)
   LDIPOL =      F    correct potential (dipole corrections)
   IDIPOL =      0    1-x, 2-y, 3-z, 4-all directions 
   EPSILON=  1.0000000 bulk dielectric constant

 Exchange correlation treatment:
   GGA     =    --    GGA type
   LEXCH   =     8    internal setting for exchange type
   VOSKOWN=      0    Vosko Wilk Nusair interpolation
   LHFCALC =     F    Hartree Fock is set to
   LHFONE  =     F    Hartree Fock one center treatment
   AEXX    =    0.0000 exact exchange contribution

 Linear response parameters
   LEPSILON=     F    determine dielectric tensor
   LRPA    =     F    only Hartree local field effects (RPA)
   LNABLA  =     F    use nabla operator in PAW spheres
   LVEL    =     F    velocity operator in full k-point grid
   LINTERFAST=   F  fast interpolation
   KINTER  =     0    interpolate to denser k-point grid
   CSHIFT  =0.1000    complex shift for real part using Kramers Kronig
   OMEGAMAX=  -1.0    maximum frequency
   DEG_THRESHOLD= 0.2000000E-02 threshold for treating states as degnerate
   RTIME   =   -0.100 relaxation time in fs
  (WPLASMAI=    0.000 imaginary part of plasma frequency in eV, 0.658/RTIME)
   DFIELD  = 0.0000000 0.0000000 0.0000000 field for delta impulse in time
 
 Orbital magnetization related:
   ORBITALMAG=     F  switch on orbital magnetization
   LCHIMAG   =     F  perturbation theory with respect to B field
   DQ        =  0.001000  dq finite difference perturbation B field
   LLRAUG    =     F  two centre corrections for induced B field



--------------------------------------------------------------------------------------------------------


 conjugate gradient relaxation of ions
   using selective dynamics as specified on POSCAR
   WARNING: If single coordinates had been selected the selection of coordinates
            is made according to the corresponding   d i r e c t   coordinates!
            Don't support selection of single cartesian coordinates -- sorry ...
  !
 charge density and potential will be updated during run
 non-spin polarized calculation
 Variant of blocked Davidson
 Davidson routine will perform the subspace rotation
 perform sub-space diagonalisation
    after iterative eigenvector-optimisation
 modified Broyden-mixing scheme, WC =      100.0
 initial mixing is a Kerker type mixing with AMIX =  0.4000 and BMIX =      1.0000
 Hartree-type preconditioning will be used
 using additional bands           44
 real space projection scheme for non local part
 use partial core corrections
 calculate Harris-corrections to forces 
   (improved forces if not selfconsistent)
 use gradient corrections 
 use of overlap-Matrix (Vanderbilt PP)
 Methfessel and Paxton  Order N= 1 SIGMA  =   0.03


--------------------------------------------------------------------------------------------------------


  energy-cutoff  :      400.00
  volume of cell :      667.13
      direct lattice vectors                 reciprocal lattice vectors
     9.609889030  0.000000000  0.000000000     0.104059474  0.000000000  0.000000000
     0.000000000  9.883209229  0.000000000     0.000000000  0.101181709  0.000000000
     0.000000000  0.000000000  7.024162769     0.000000000  0.000000000  0.142365721

  length of vectors
     9.609889030  9.883209229  7.024162769     0.104059474  0.101181709  0.142365721


 
 k-points in units of 2pi/SCALE and weight: k-points                                
   0.01300743  0.01264771  0.01779572       0.125
   0.03902230  0.01264771  0.01779572       0.125
   0.01300743  0.03794314  0.01779572       0.125
   0.03902230  0.03794314  0.01779572       0.125
   0.01300743  0.01264771  0.05338715       0.125
   0.03902230  0.01264771  0.05338715       0.125
   0.01300743  0.03794314  0.05338715       0.125
   0.03902230  0.03794314  0.05338715       0.125
 
 k-points in reciprocal lattice and weights: k-points                                
   0.12500000  0.12500000  0.12500000       0.125
   0.37500000  0.12500000  0.12500000       0.125
   0.12500000  0.37500000  0.12500000       0.125
   0.37500000  0.37500000  0.12500000       0.125
   0.12500000  0.12500000  0.37500000       0.125
   0.37500000  0.12500000  0.37500000       0.125
   0.12500000  0.37500000  0.37500000       0.125
   0.37500000  0.37500000  0.37500000       0.125
 
 position of ions in fractional coordinates (direct lattice) 
   0.12615012  0.01569818  0.38998857
   0.12615012  0.51569819  0.38998857
   0.62615013  0.01569818  0.38998857
   0.62615013  0.51569819  0.38998857
   0.12615012  0.23430182  0.61001140
   0.12615012  0.73430181  0.61001140
   0.62615013  0.23430182  0.61001140
   0.62615013  0.73430181  0.61001140
   0.12384988  0.26569819  0.11001141
   0.12384988  0.76569819  0.11001141
   0.62384987  0.26569819  0.11001141
   0.62384987  0.76569819  0.11001141
   0.12384988  0.48430181  0.88998860
   0.12384988  0.98430181  0.88998860
   0.62384987  0.48430181  0.88998860
   0.62384987  0.98430181  0.88998860
   0.37384987  0.48430181  0.61001140
   0.37384987  0.98430181  0.61001140
   0.87384987  0.48430181  0.61001140
   0.87384987  0.98430181  0.61001140
   0.37384987  0.26569819  0.38998857
   0.37384987  0.76569819  0.38998857
   0.87384987  0.26569819  0.38998857
   0.87384987  0.76569819  0.38998857
   0.37615013  0.23430182  0.88998860
   0.37615013  0.73430181  0.88998860
   0.87615013  0.23430182  0.88998860
   0.87615013  0.73430181  0.88998860
   0.37615013  0.01569818  0.11001141
   0.37615013  0.51569819  0.11001141
   0.87615013  0.01569818  0.11001141
   0.87615013  0.51569819  0.11001141
   0.05353638  0.05119488  0.65414768
   0.05353638  0.55119491  0.65414768
   0.55353636  0.05119488  0.65414768
   0.55353636  0.55119491  0.65414768
   0.05353638  0.19880512  0.34585235
   0.05353638  0.69880509  0.34585235
   0.55353636  0.19880512  0.34585235
   0.55353636  0.69880509  0.34585235
   0.19646361  0.30119488  0.84585232
   0.19646361  0.80119491  0.84585232
   0.69646358  0.30119488  0.84585232
   0.69646358  0.80119491  0.84585232
   0.19646361  0.44880512  0.15414764
   0.19646361  0.94880509  0.15414764
   0.69646358  0.44880512  0.15414764
   0.69646358  0.94880509  0.15414764
   0.44646364  0.44880512  0.34585235
   0.44646364  0.94880509  0.34585235
   0.94646364  0.44880512  0.34585235
   0.94646364  0.94880509  0.34585235
   0.44646364  0.30119488  0.65414768
   0.44646364  0.80119491  0.65414768
   0.94646364  0.30119488  0.65414768
   0.94646364  0.80119491  0.65414768
   0.30353636  0.19880512  0.15414764
   0.30353636  0.69880509  0.15414764
   0.80353636  0.19880512  0.15414764
   0.80353636  0.69880509  0.15414764
   0.30353636  0.05119488  0.84585232
   0.30353636  0.55119491  0.84585232
   0.80353636  0.05119488  0.84585232
   0.80353636  0.55119491  0.84585232
   0.02509418  0.12500000  0.00000000
   0.02509418  0.62500000  0.00000000
   0.52509421  0.12500000  0.00000000
   0.52509421  0.62500000  0.00000000
   0.22490582  0.37500000  0.50000000
   0.22490582  0.87500000  0.50000000
   0.72490585  0.37500000  0.50000000
   0.72490585  0.87500000  0.50000000
   0.47490579  0.37500000  0.00000000
   0.47490579  0.87500000  0.00000000
   0.97490579  0.37500000  0.00000000
   0.97490579  0.87500000  0.00000000
   0.27509421  0.12500000  0.50000000
   0.27509421  0.62500000  0.50000000
   0.77509421  0.12500000  0.50000000
   0.77509421  0.62500000  0.50000000
 
 position of ions in cartesian coordinates  (Angst):
   1.21228862  0.15514843  2.73934320
   1.21228862  5.09675315  2.73934320
   6.01723328  0.15514843  2.73934320
   6.01723328  5.09675315  2.73934320
   1.21228862  2.31565391  4.28481936
   1.21228862  7.25725838  4.28481936
   6.01723328  2.31565391  4.28481936
   6.01723328  7.25725838  4.28481936
   1.19018364  2.62595085  0.77273802
   1.19018364  7.56755546  0.77273802
   5.99512801  2.62595085  0.77273802
   5.99512801  7.56755546  0.77273802
   1.19018364  4.78645607  6.25142480
   1.19018364  9.72806069  6.25142480
   5.99512801  4.78645607  6.25142480
   5.99512801  9.72806069  6.25142480
   3.59265575  4.78645607  4.28481936
   3.59265575  9.72806069  4.28481936
   8.39760027  4.78645607  4.28481936
   8.39760027  9.72806069  4.28481936
   3.59265575  2.62595085  2.73934320
   3.59265575  7.56755546  2.73934320
   8.39760027  2.62595085  2.73934320
   8.39760027  7.56755546  2.73934320
   3.61476102  2.31565391  6.25142480
   3.61476102  7.25725838  6.25142480
   8.41970554  2.31565391  6.25142480
   8.41970554  7.25725838  6.25142480
   3.61476102  0.15514843  0.77273802
   3.61476102  5.09675315  0.77273802
   8.41970554  0.15514843  0.77273802
   8.41970554  5.09675315  0.77273802
   0.51447865  0.50596968  4.59483981
   0.51447865  5.44757458  4.59483981
   5.31942295  0.50596968  4.59483981
   5.31942295  5.44757458  4.59483981
   0.51447865  1.96483263  2.42932317
   0.51447865  6.90643695  2.42932317
   5.31942295  1.96483263  2.42932317
   5.31942295  6.90643695  2.42932317
   1.88799354  2.97677198  5.94140434
   1.88799354  7.91837689  5.94140434
   6.69293777  2.97677198  5.94140434
   6.69293777  7.91837689  5.94140434
   1.88799354  4.43563494  1.08275811
   1.88799354  9.37723926  1.08275811
   6.69293777  4.43563494  1.08275811
   6.69293777  9.37723926  1.08275811
   4.29046608  4.43563494  2.42932317
   4.29046608  9.37723926  2.42932317
   9.09541060  4.43563494  2.42932317
   9.09541060  9.37723926  2.42932317
   4.29046608  2.97677198  4.59483981
   4.29046608  7.91837689  4.59483981
   9.09541060  2.97677198  4.59483981
   9.09541060  7.91837689  4.59483981
   2.91695069  1.96483263  1.08275811
   2.91695069  6.90643695  1.08275811
   7.72189521  1.96483263  1.08275811
   7.72189521  6.90643695  1.08275811
   2.91695069  0.50596968  5.94140434
   2.91695069  5.44757458  5.94140434
   7.72189521  0.50596968  5.94140434
   7.72189521  5.44757458  5.94140434
   0.24115233  1.23540115  0.00000000
   0.24115233  6.17700577  0.00000000
   5.04609710  1.23540115  0.00000000
   5.04609710  6.17700577  0.00000000
   2.16131996  3.70620346  3.51208139
   2.16131996  8.64780808  3.51208139
   6.96626476  3.70620346  3.51208139
   6.96626476  8.64780808  3.51208139
   4.56379193  3.70620346  0.00000000
   4.56379193  8.64780808  0.00000000
   9.36873645  3.70620346  0.00000000
   9.36873645  8.64780808  0.00000000
   2.64362484  1.23540115  3.51208139
   2.64362484  6.17700577  3.51208139
   7.44856936  1.23540115  3.51208139
   7.44856936  6.17700577  3.51208139
 


--------------------------------------------------------------------------------------------------------


 k-point   1 :   0.1250 0.1250 0.1250  plane waves:   12137
 k-point   2 :   0.3750 0.1250 0.1250  plane waves:   12099
 k-point   3 :   0.1250 0.3750 0.1250  plane waves:   12137
 k-point   4 :   0.3750 0.3750 0.1250  plane waves:   12140
 k-point   5 :   0.1250 0.1250 0.3750  plane waves:   12108
 k-point   6 :   0.3750 0.1250 0.3750  plane waves:   12102
 k-point   7 :   0.1250 0.3750 0.3750  plane waves:   12108
 k-point   8 :   0.3750 0.3750 0.3750  plane waves:   12125

 maximum and minimum number of plane-waves per node :       774      741

 maximum number of plane-waves:     12140
 maximum index in each direction: 
   IXMAX=   15   IYMAX=   15   IZMAX=   11
   IXMIN=  -16   IYMIN=  -16   IZMIN=  -11


 real space projection operators:
  total allocation   :       5888.00 KBytes
  max/ min on nodes  :        376.25        350.00


 parallel 3D FFT for wavefunctions:
    minimum data exchange during FFTs selected (reduces bandwidth)
 parallel 3D FFT for charge:
    minimum data exchange during FFTs selected (reduces bandwidth)


 total amount of memory used by VASP MPI-rank0    40056. kBytes
=======================================================================

   base      :      30000. kBytes
   nonlr-proj:       2323. kBytes
   fftplans  :        617. kBytes
   grid      :        999. kBytes
   one-center:         15. kBytes
   wavefun   :       6102. kBytes
 
     INWAV:  cpu time    0.0001: real time    0.0005
 Broyden mixing: mesh for mixing (old mesh)
   NGX = 31   NGY = 33   NGZ = 23
  (NGX  = 96   NGY  = 96   NGZ  = 72)
  gives a total of  23529 points

 initial charge density was supplied:
 charge density of overlapping atoms calculated
 number of electron     384.0000000 magnetization 
 keeping initial charge density in first step


--------------------------------------------------------------------------------------------------------


 Maximum index for non-local projection operator          142
 Maximum index for augmentation-charges          290 (set IRDMAX)


--------------------------------------------------------------------------------------------------------


 First call to EWALD:  gamma=   0.203
 Maximum number of real-space cells 3x 2x 3
 Maximum number of reciprocal cells 3x 3x 2

    FEWALD:  cpu time    0.0031: real time    0.0031


--------------------------------------- Iteration      1(   1)  ---------------------------------------


    POTLOK:  cpu time    0.0262: real time    0.0302
    SETDIJ:  cpu time    0.0044: real time    0.0061
     EDDAV:  cpu time    2.2299: real time    2.2456
       DOS:  cpu time    0.0020: real time    0.0025
    --------------------------------------------
      LOOP:  cpu time    2.2625: real time    2.2844

 eigenvalue-minimisations  :  3776
 total energy-change (2. order) : 0.1838322E+04  (-0.1768285E+05)
 number of electron     384.0000000 magnetization 
 augmentation part      384.0000000 magnetization 

 Free energy of the ion-electron system (eV)
  ---------------------------------------------------
  alpha Z        PSCENC =       619.23458330
  Ewald energy   TEWEN  =    -19482.46614396
  -Hartree energ DENC   =     -4928.62092220
  -exchange      EXHF   =         0.00000000
  -V(xc)+E(xc)   XCENC  =       534.05539358
  PAW double counting   =     18752.77991877   -17816.57094691
  entropy T*S    EENTRO =        -0.00068467
  eigenvalues    EBANDS =      1698.05663215
  atomic energy  EATOM  =     22461.85434800
  Solvation  Ediel_sol  =         0.00000000
  ---------------------------------------------------
  free energy    TOTEN  =      1838.32217804 eV

  energy without entropy =     1838.32286271  energy(sigma->0) =     1838.32240627


--------------------------------------------------------------------------------------------------------




--------------------------------------- Iteration      1(   2)  ---------------------------------------


     EDDAV:  cpu time    2.4537: real time    3.1238
       DOS:  cpu time    0.0020: real time    0.0020
    --------------------------------------------
      LOOP:  cpu time    2.4557: real time    3.1258

 eigenvalue-minimisations  :  4480
 total energy-change (2. order) :-0.2369832E+04  (-0.2314833E+04)
 number of electron     384.0000000 magnetization 
 augmentation part      384.0000000 magnetization 

 Free energy of the ion-electron system (eV)
  ---------------------------------------------------
  alpha Z        PSCENC =       619.23458330
  Ewald energy   TEWEN  =    -19482.46614396
  -Hartree energ DENC   =     -4928.62092220
  -exchange      EXHF   =         0.00000000
  -V(xc)+E(xc)   XCENC  =       534.05539358
  PAW double counting   =     18752.77991877   -17816.57094691
  entropy T*S    EENTRO =         0.00041686
  eigenvalues    EBANDS =      -671.77659342
  atomic energy  EATOM  =     22461.85434800
  Solvation  Ediel_sol  =         0.00000000
  ---------------------------------------------------
  free energy    TOTEN  =      -531.50994599 eV

  energy without entropy =     -531.51036285  energy(sigma->0) =     -531.51008494


--------------------------------------------------------------------------------------------------------




--------------------------------------- Iteration      1(   3)  ---------------------------------------


     EDDAV:  cpu time    2.4743: real time    2.4831
       DOS:  cpu time    0.0022: real time    0.0022
    --------------------------------------------
      LOOP:  cpu time    2.4765: real time    2.4853

 eigenvalue-minimisations  :  4424
 total energy-change (2. order) :-0.1230092E+03  (-0.1224330E+03)
 number of electron     384.0000000 magnetization 
 augmentation part      384.0000000 magnetization 

 Free energy of the ion-electron system (eV)
  ---------------------------------------------------
  alpha Z        PSCENC =       619.23458330
  Ewald energy   TEWEN  =    -19482.46614396
  -Hartree energ DENC   =     -4928.62092220
  -exchange      EXHF   =         0.00000000
  -V(xc)+E(xc)   XCENC  =       534.05539358
  PAW double counting   =     18752.77991877   -17816.57094691
  entropy T*S    EENTRO =         0.00150642
  eigenvalues    EBANDS =      -794.78690842
  atomic energy  EATOM  =     22461.85434800
  Solvation  Ediel_sol  =         0.00000000
  ---------------------------------------------------
  free energy    TOTEN  =      -654.51917143 eV

  energy without entropy =     -654.52067785  energy(sigma->0) =     -654.51967357


--------------------------------------------------------------------------------------------------------




--------------------------------------- Iteration      1(   4)  ---------------------------------------


     EDDAV:  cpu time    2.3114: real time    2.3216
       DOS:  cpu time    0.0022: real time    0.0022
    --------------------------------------------
      LOOP:  cpu time    2.3135: real time    2.3237

 eigenvalue-minimisations  :  4400
 total energy-change (2. order) :-0.1396466E+01  (-0.1391634E+01)
 number of electron     384.0000000 magnetization 
 augmentation part      384.0000000 magnetization 

 Free energy of the ion-electron system (eV)
  ---------------------------------------------------
  alpha Z        PSCENC =       619.23458330
  Ewald energy   TEWEN  =    -19482.46614396
  -Hartree energ DENC   =     -4928.62092220
  -exchange      EXHF   =         0.00000000
  -V(xc)+E(xc)   XCENC  =       534.05539358
  PAW double counting   =     18752.77991877   -17816.57094691
  entropy T*S    EENTRO =         0.00164934
  eigenvalues    EBANDS =      -796.18351780
  atomic energy  EATOM  =     22461.85434800
  Solvation  Ediel_sol  =         0.00000000
  ---------------------------------------------------
  free energy    TOTEN  =      -655.91563790 eV

  energy without entropy =     -655.91728723  energy(sigma->0) =     -655.91618768


--------------------------------------------------------------------------------------------------------




--------------------------------------- Iteration      1(   5)  ---------------------------------------


     EDDAV:  cpu time    2.3814: real time    2.3880
       DOS:  cpu time    0.0024: real time    0.0024
    CHARGE:  cpu time    0.0633: real time    0.0634
    MIXING:  cpu time    0.0012: real time    0.0018
    --------------------------------------------
      LOOP:  cpu time    2.4483: real time    2.4556

 eigenvalue-minimisations  :  4432
 total energy-change (2. order) :-0.2590851E-01  (-0.2586407E-01)
 number of electron     384.0001522 magnetization 
 augmentation part       37.2979928 magnetization 

 Broyden mixing:
  rms(total) = 0.48879E+01    rms(broyden)= 0.48861E+01
  rms(prec ) = 0.64370E+01
  weight for this iteration     100.00

 Free energy of the ion-electron system (eV)
  ---------------------------------------------------
  alpha Z        PSCENC =       619.23458330
  Ewald energy   TEWEN  =    -19482.46614396
  -Hartree energ DENC   =     -4928.62092220
  -exchange      EXHF   =         0.00000000
  -V(xc)+E(xc)   XCENC  =       534.05539358
  PAW double counting   =     18752.77991877   -17816.57094691
  entropy T*S    EENTRO =         0.00165346
  eigenvalues    EBANDS =      -796.20943044
  atomic energy  EATOM  =     22461.85434800
  Solvation  Ediel_sol  =         0.00000000
  ---------------------------------------------------
  free energy    TOTEN  =      -655.94154640 eV

  energy without entropy =     -655.94319987  energy(sigma->0) =     -655.94209756


--------------------------------------------------------------------------------------------------------




--------------------------------------- Iteration      1(   6)  ---------------------------------------


    POTLOK:  cpu time    0.0198: real time    0.0202
    SETDIJ:  cpu time    0.0045: real time    0.0045
     EDDAV:  cpu time    2.3914: real time    2.3977
       DOS:  cpu time    0.0025: real time    0.0025
    CHARGE:  cpu time    0.0649: real time    0.0651
    MIXING:  cpu time    0.0013: real time    0.0014
    --------------------------------------------
      LOOP:  cpu time    2.4845: real time    2.4914

 eigenvalue-minimisations  :  4232
 total energy-change (2. order) : 0.6420694E+02  (-0.2722036E+02)
 number of electron     384.0001305 magnetization 
 augmentation part       31.5985286 magnetization 

 Broyden mixing:
  rms(total) = 0.17027E+01    rms(broyden)= 0.17002E+01
  rms(prec ) = 0.18963E+01
  weight for this iteration     100.00

 eigenvalues of (default mixing * dielectric matrix)
  average eigenvalue GAMMA=   0.9638
  0.9638

 Free energy of the ion-electron system (eV)
  ---------------------------------------------------
  alpha Z        PSCENC =       619.23458330
  Ewald energy   TEWEN  =    -19482.46614396
  -Hartree energ DENC   =     -5671.60971091
  -exchange      EXHF   =         0.00000000
  -V(xc)+E(xc)   XCENC  =       586.53356833
  PAW double counting   =     24202.31596076   -23280.40777336
  entropy T*S    EENTRO =         0.00064488
  eigenvalues    EBANDS =       -27.19008435
  atomic energy  EATOM  =     22461.85434800
  Solvation  Ediel_sol  =         0.00000000
  ---------------------------------------------------
  free energy    TOTEN  =      -591.73460731 eV

  energy without entropy =     -591.73525218  energy(sigma->0) =     -591.73482227


--------------------------------------------------------------------------------------------------------




--------------------------------------- Iteration      1(   7)  ---------------------------------------


    POTLOK:  cpu time    0.0193: real time    0.0197
    SETDIJ:  cpu time    0.0035: real time    0.0035
     EDDAV:  cpu time    2.4164: real time    2.4224
       DOS:  cpu time    0.0021: real time    0.0021
    CHARGE:  cpu time    0.0598: real time    0.0599
    MIXING:  cpu time    0.0008: real time    0.0010
    --------------------------------------------
      LOOP:  cpu time    2.5020: real time    2.5086

 eigenvalue-minimisations  :  4520
 total energy-change (2. order) : 0.1996930E-01  (-0.6150332E+00)
 number of electron     384.0001301 magnetization 
 augmentation part       31.2170124 magnetization 

 Broyden mixing:
  rms(total) = 0.94093E+00    rms(broyden)= 0.94073E+00
  rms(prec ) = 0.10608E+01
  weight for this iteration     100.00

 eigenvalues of (default mixing * dielectric matrix)
  average eigenvalue GAMMA=   1.3083
  1.2121  1.4044

 Free energy of the ion-electron system (eV)
  ---------------------------------------------------
  alpha Z        PSCENC =       619.23458330
  Ewald energy   TEWEN  =    -19482.46614396
  -Hartree energ DENC   =     -5737.84095197
  -exchange      EXHF   =         0.00000000
  -V(xc)+E(xc)   XCENC  =       592.19209698
  PAW double counting   =     28305.82661236   -27383.38096303
  entropy T*S    EENTRO =         0.00057974
  eigenvalues    EBANDS =        32.86520057
  atomic energy  EATOM  =     22461.85434800
  Solvation  Ediel_sol  =         0.00000000
  ---------------------------------------------------
  free energy    TOTEN  =      -591.71463801 eV

  energy without entropy =     -591.71521775  energy(sigma->0) =     -591.71483125


--------------------------------------------------------------------------------------------------------




--------------------------------------- Iteration      1(   8)  ---------------------------------------


    POTLOK:  cpu time    0.0183: real time    0.0186
    SETDIJ:  cpu time    0.0034: real time    0.0034
     EDDAV:  cpu time    2.3314: real time    2.3407
       DOS:  cpu time    0.0021: real time    0.0021
    CHARGE:  cpu time    0.0690: real time    0.0692
    MIXING:  cpu time    0.0010: real time    0.0012
    --------------------------------------------
      LOOP:  cpu time    2.4251: real time    2.4352

 eigenvalue-minimisations  :  4368
 total energy-change (2. order) :-0.2442728E-02  (-0.4694102E-01)
 number of electron     384.0001305 magnetization 
 augmentation part       31.3143446 magnetization 

 Broyden mixing:
  rms(total) = 0.29027E+00    rms(broyden)= 0.29026E+00
  rms(prec ) = 0.34213E+00
  weight for this iteration     100.00

 eigenvalues of (default mixing * dielectric matrix)
  average eigenvalue GAMMA=   1.5629
  2.5365  1.0761  1.0761

 Free energy of the ion-electron system (eV)
  ---------------------------------------------------
  alpha Z        PSCENC =       619.23458330
  Ewald energy   TEWEN  =    -19482.46614396
  -Hartree energ DENC   =     -5757.80468727
  -exchange      EXHF   =         0.00000000
  -V(xc)+E(xc)   XCENC  =       594.96085985
  PAW double counting   =     31491.99139035   -30568.80450938
  entropy T*S    EENTRO =         0.00060348
  eigenvalues    EBANDS =        49.31647489
  atomic energy  EATOM  =     22461.85434800
  Solvation  Ediel_sol  =         0.00000000
  ---------------------------------------------------
  free energy    TOTEN  =      -591.71708074 eV

  energy without entropy =     -591.71768421  energy(sigma->0) =     -591.71728190


--------------------------------------------------------------------------------------------------------




--------------------------------------- Iteration      1(   9)  ---------------------------------------


    POTLOK:  cpu time    0.0211: real time    1.0569
    SETDIJ:  cpu time    0.0036: real time    0.0036
     EDDAV:  cpu time    2.3082: real time    2.3162
       DOS:  cpu time    0.0021: real time    0.0021
    CHARGE:  cpu time    0.0586: real time    0.0588
    MIXING:  cpu time    0.0009: real time    0.0009
    --------------------------------------------
      LOOP:  cpu time    2.3945: real time    3.4384

 eigenvalue-minimisations  :  4320
 total energy-change (2. order) :-0.4675107E-01  (-0.1545946E-01)
 number of electron     384.0001302 magnetization 
 augmentation part       31.2472612 magnetization 

 Broyden mixing:
  rms(total) = 0.69718E-01    rms(broyden)= 0.69706E-01
  rms(prec ) = 0.72449E-01
  weight for this iteration     100.00

 eigenvalues of (default mixing * dielectric matrix)
  average eigenvalue GAMMA=   1.7357
  1.0293  1.0293  2.4421  2.4421

 Free energy of the ion-electron system (eV)
  ---------------------------------------------------
  alpha Z        PSCENC =       619.23458330
  Ewald energy   TEWEN  =    -19482.46614396
  -Hartree energ DENC   =     -5787.07204823
  -exchange      EXHF   =         0.00000000
  -V(xc)+E(xc)   XCENC  =       597.86941770
  PAW double counting   =     32920.76656233   -31997.60152249
  entropy T*S    EENTRO =         0.00059974
  eigenvalues    EBANDS =        75.65037178
  atomic energy  EATOM  =     22461.85434800
  Solvation  Ediel_sol  =         0.00000000
  ---------------------------------------------------
  free energy    TOTEN  =      -591.76383181 eV

  energy without entropy =     -591.76443155  energy(sigma->0) =     -591.76403172


--------------------------------------------------------------------------------------------------------




--------------------------------------- Iteration      1(  10)  ---------------------------------------


    POTLOK:  cpu time    0.0199: real time    0.0203
    SETDIJ:  cpu time    0.0034: real time    0.0034
     EDDAV:  cpu time    2.2996: real time    2.3088
       DOS:  cpu time    0.0044: real time    0.0044
    CHARGE:  cpu time    0.0630: real time    0.0631
    MIXING:  cpu time    0.0009: real time    0.0009
    --------------------------------------------
      LOOP:  cpu time    2.3911: real time    2.4009

 eigenvalue-minimisations  :  4392
 total energy-change (2. order) :-0.6351667E-02  (-0.2772625E-02)
 number of electron     384.0001303 magnetization 
 augmentation part       31.2231674 magnetization 

 Broyden mixing:
  rms(total) = 0.32246E-01    rms(broyden)= 0.32223E-01
  rms(prec ) = 0.38912E-01
  weight for this iteration     100.00

 eigenvalues of (default mixing * dielectric matrix)
  average eigenvalue GAMMA=   1.5314
  2.6257  2.3050  1.0091  1.0091  0.7082

 Free energy of the ion-electron system (eV)
  ---------------------------------------------------
  alpha Z        PSCENC =       619.23458330
  Ewald energy   TEWEN  =    -19482.46614396
  -Hartree energ DENC   =     -5789.65925024
  -exchange      EXHF   =         0.00000000
  -V(xc)+E(xc)   XCENC  =       598.11065942
  PAW double counting   =     32500.62393461   -31577.53474665
  entropy T*S    EENTRO =         0.00058260
  eigenvalues    EBANDS =        78.06584944
  atomic energy  EATOM  =     22461.85434800
  Solvation  Ediel_sol  =         0.00000000
  ---------------------------------------------------
  free energy    TOTEN  =      -591.77018347 eV

  energy without entropy =     -591.77076608  energy(sigma->0) =     -591.77037767


--------------------------------------------------------------------------------------------------------




--------------------------------------- Iteration      1(  11)  ---------------------------------------


    POTLOK:  cpu time    0.0217: real time    0.0221
    SETDIJ:  cpu time    0.0033: real time    0.0033
     EDDAV:  cpu time    2.3857: real time    2.3955
       DOS:  cpu time    0.0019: real time    0.0019
    CHARGE:  cpu time    0.0603: real time    0.0605
    MIXING:  cpu time    0.0010: real time    0.0010
    --------------------------------------------
      LOOP:  cpu time    2.4739: real time    2.4843

 eigenvalue-minimisations  :  4400
 total energy-change (2. order) : 0.1262198E-02  (-0.5711537E-03)
 number of electron     384.0001303 magnetization 
 augmentation part       31.2388967 magnetization 

 Broyden mixing:
  rms(total) = 0.19859E-01    rms(broyden)= 0.19857E-01
  rms(prec ) = 0.22218E-01
  weight for this iteration     100.00

 eigenvalues of (default mixing * dielectric matrix)
  average eigenvalue GAMMA=   1.5615
  2.7886  2.4862  1.0267  1.0267  1.0204  1.0204

 Free energy of the ion-electron system (eV)
  ---------------------------------------------------
  alpha Z        PSCENC =       619.23458330
  Ewald energy   TEWEN  =    -19482.46614396
  -Hartree energ DENC   =     -5788.55081600
  -exchange      EXHF   =         0.00000000
  -V(xc)+E(xc)   XCENC  =       598.04322560
  PAW double counting   =     32497.28694411   -31574.16396578
  entropy T*S    EENTRO =         0.00059125
  eigenvalues    EBANDS =        76.99231220
  atomic energy  EATOM  =     22461.85434800
  Solvation  Ediel_sol  =         0.00000000
  ---------------------------------------------------
  free energy    TOTEN  =      -591.76892128 eV

  energy without entropy =     -591.76951253  energy(sigma->0) =     -591.76911836


--------------------------------------------------------------------------------------------------------




--------------------------------------- Iteration      1(  12)  ---------------------------------------


    POTLOK:  cpu time    0.0199: real time    0.0204
    SETDIJ:  cpu time    0.0034: real time    0.0034
     EDDAV:  cpu time    2.3042: real time    2.3165
       DOS:  cpu time    0.0019: real time    0.0019
    CHARGE:  cpu time    0.0569: real time    0.0570
    MIXING:  cpu time    0.0009: real time    0.0009
    --------------------------------------------
      LOOP:  cpu time    2.3872: real time    2.4000

 eigenvalue-minimisations  :  4352
 total energy-change (2. order) :-0.2758032E-04  (-0.3209343E-03)
 number of electron     384.0001303 magnetization 
 augmentation part       31.2403834 magnetization 

 Broyden mixing:
  rms(total) = 0.52881E-02    rms(broyden)= 0.52665E-02
  rms(prec ) = 0.64213E-02
  weight for this iteration     100.00

 eigenvalues of (default mixing * dielectric matrix)
  average eigenvalue GAMMA=   1.5069
  2.8589  2.4607  1.1110  1.1110  1.0479  0.9797  0.9797

 Free energy of the ion-electron system (eV)
  ---------------------------------------------------
  alpha Z        PSCENC =       619.23458330
  Ewald energy   TEWEN  =    -19482.46614396
  -Hartree energ DENC   =     -5788.58514978
  -exchange      EXHF   =         0.00000000
  -V(xc)+E(xc)   XCENC  =       598.05119313
  PAW double counting   =     32409.42763679   -31486.31689194
  entropy T*S    EENTRO =         0.00059593
  eigenvalues    EBANDS =        77.03087967
  atomic energy  EATOM  =     22461.85434800
  Solvation  Ediel_sol  =         0.00000000
  ---------------------------------------------------
  free energy    TOTEN  =      -591.76894886 eV

  energy without entropy =     -591.76954478  energy(sigma->0) =     -591.76914750


--------------------------------------------------------------------------------------------------------




--------------------------------------- Iteration      1(  13)  ---------------------------------------


    POTLOK:  cpu time    0.0187: real time    0.0191
    SETDIJ:  cpu time    0.0034: real time    0.0034
     EDDAV:  cpu time    2.2747: real time    2.2816
       DOS:  cpu time    0.0021: real time    0.0021
    CHARGE:  cpu time    0.0574: real time    0.0576
    MIXING:  cpu time    0.0010: real time    0.0010
    --------------------------------------------
      LOOP:  cpu time    2.3572: real time    2.3648

 eigenvalue-minimisations  :  4328
 total energy-change (2. order) : 0.2903529E-04  (-0.4478000E-04)
 number of electron     384.0001303 magnetization 
 augmentation part       31.2455215 magnetization 

 Broyden mixing:
  rms(total) = 0.21247E-02    rms(broyden)= 0.21216E-02
  rms(prec ) = 0.24238E-02
  weight for this iteration     100.00

 eigenvalues of (default mixing * dielectric matrix)
  average eigenvalue GAMMA=   1.4992
  2.8589  2.4445  1.7709  0.9954  0.9954  1.0439  1.0439  0.8406

 Free energy of the ion-electron system (eV)
  ---------------------------------------------------
  alpha Z        PSCENC =       619.23458330
  Ewald energy   TEWEN  =    -19482.46614396
  -Hartree energ DENC   =     -5787.96747095
  -exchange      EXHF   =         0.00000000
  -V(xc)+E(xc)   XCENC  =       598.00787968
  PAW double counting   =     32402.83802314   -31479.70984695
  entropy T*S    EENTRO =         0.00059490
  eigenvalues    EBANDS =        76.43911302
  atomic energy  EATOM  =     22461.85434800
  Solvation  Ediel_sol  =         0.00000000
  ---------------------------------------------------
  free energy    TOTEN  =      -591.76891982 eV

  energy without entropy =     -591.76951472  energy(sigma->0) =     -591.76911812


--------------------------------------------------------------------------------------------------------




--------------------------------------- Iteration      1(  14)  ---------------------------------------


    POTLOK:  cpu time    0.0209: real time    0.0222
    SETDIJ:  cpu time    0.0034: real time    0.0034
     EDDAV:  cpu time    2.3633: real time    2.3707
       DOS:  cpu time    0.0021: real time    0.0021
    CHARGE:  cpu time    0.0613: real time    0.0616
    MIXING:  cpu time    0.0010: real time    0.0010
    --------------------------------------------
      LOOP:  cpu time    2.4520: real time    2.4611

 eigenvalue-minimisations  :  4416
 total energy-change (2. order) : 0.2659050E-05  (-0.4082320E-05)
 number of electron     384.0001303 magnetization 
 augmentation part       31.2447556 magnetization 

 Broyden mixing:
  rms(total) = 0.82821E-03    rms(broyden)= 0.82747E-03
  rms(prec ) = 0.90588E-03
  weight for this iteration     100.00

 eigenvalues of (default mixing * dielectric matrix)
  average eigenvalue GAMMA=   1.5220
  2.9443  2.5412  2.1493  0.9880  0.9880  1.0546  1.0546  0.9486  1.0296

 Free energy of the ion-electron system (eV)
  ---------------------------------------------------
  alpha Z        PSCENC =       619.23458330
  Ewald energy   TEWEN  =    -19482.46614396
  -Hartree energ DENC   =     -5788.05284105
  -exchange      EXHF   =         0.00000000
  -V(xc)+E(xc)   XCENC  =       598.01150892
  PAW double counting   =     32398.77132086   -31475.64252503
  entropy T*S    EENTRO =         0.00059459
  eigenvalues    EBANDS =        76.52023720
  atomic energy  EATOM  =     22461.85434800
  Solvation  Ediel_sol  =         0.00000000
  ---------------------------------------------------
  free energy    TOTEN  =      -591.76891716 eV

  energy without entropy =     -591.76951175  energy(sigma->0) =     -591.76911536


--------------------------------------------------------------------------------------------------------




--------------------------------------- Iteration      1(  15)  ---------------------------------------


    POTLOK:  cpu time    0.0971: real time    0.0981
    SETDIJ:  cpu time    0.0040: real time    0.0040
     EDDAV:  cpu time    1.7270: real time    1.7333
       DOS:  cpu time    0.0018: real time    0.0018
    --------------------------------------------
      LOOP:  cpu time    1.8300: real time    1.8372

 eigenvalue-minimisations  :  2928
 total energy-change (2. order) : 0.2725974E-06  (-0.3062662E-06)
 number of electron     384.0001303 magnetization 
 augmentation part       31.2447556 magnetization 

 Free energy of the ion-electron system (eV)
  ---------------------------------------------------
  alpha Z        PSCENC =       619.23458330
  Ewald energy   TEWEN  =    -19482.46614396
  -Hartree energ DENC   =     -5788.11660403
  -exchange      EXHF   =         0.00000000
  -V(xc)+E(xc)   XCENC  =       598.01473445
  PAW double counting   =     32394.99909282   -31471.86885441
  entropy T*S    EENTRO =         0.00059454
  eigenvalues    EBANDS =        76.57933239
  atomic energy  EATOM  =     22461.85434800
  Solvation  Ediel_sol  =         0.00000000
  ---------------------------------------------------
  free energy    TOTEN  =      -591.76891689 eV

  energy without entropy =     -591.76951143  energy(sigma->0) =     -591.76911507


--------------------------------------------------------------------------------------------------------




 average (electrostatic) potential at core
  the test charge radii are     1.0406  0.7215
  (the norm of the test charge is              1.0000)
       1 -71.1885       2 -71.1886       3 -71.1885       4 -71.1886       5 -71.1886
       6 -71.1886       7 -71.1886       8 -71.1886       9 -71.1886      10 -71.1886
      11 -71.1886      12 -71.1886      13 -71.1886      14 -71.1886      15 -71.1886
      16 -71.1886      17 -71.1886      18 -71.1886      19 -71.1886      20 -71.1886
      21 -71.1885      22 -71.1886      23 -71.1885      24 -71.1886      25 -71.1886
      26 -71.1886      27 -71.1885      28 -71.1886      29 -71.1885      30 -71.1886
      31 -71.1885      32 -71.1886      33 -66.7472      34 -66.7472      35 -66.7472
      36 -66.7472      37 -66.7472      38 -66.7472      39 -66.7472      40 -66.7472
      41 -66.7472      42 -66.7472      43 -66.7472      44 -66.7472      45 -66.7472
      46 -66.7472      47 -66.7472      48 -66.7472      49 -66.7472      50 -66.7472
      51 -66.7472      52 -66.7472      53 -66.7472      54 -66.7472      55 -66.7472
      56 -66.7472      57 -66.7472      58 -66.7472      59 -66.7472      60 -66.7472
      61 -66.7472      62 -66.7472      63 -66.7472      64 -66.7472      65 -66.6142
      66 -66.6142      67 -66.6142      68 -66.6142      69 -66.6142      70 -66.6142
      71 -66.6142      72 -66.6142      73 -66.6142      74 -66.6142      75 -66.6142
      76 -66.6142      77 -66.6142      78 -66.6142      79 -66.6142      80 -66.6142
 
 
 
 E-fermi :   6.5975     XC(G=0): -11.8552     alpha+bet :-17.1618


 k-point     1 :       0.1250    0.1250    0.1250
  band No.  band energies     occupation 
      1     -12.7214      2.00000
      2     -12.1148      2.00000
      3     -12.0889      2.00000
      4     -11.7532      2.00000
      5     -11.7225      2.00000
      6     -11.6994      2.00000
      7     -11.5602      2.00000
      8     -11.2624      2.00000
      9     -11.2510      2.00000
     10     -11.1917      2.00000
     11     -11.1836      2.00000
     12     -11.0303      2.00000
     13     -10.9484      2.00000
     14     -10.8919      2.00000
     15     -10.7685      2.00000
     16     -10.6619      2.00000
     17     -10.6604      2.00000
     18     -10.5710      2.00000
     19     -10.5274      2.00000
     20     -10.5062      2.00000
     21     -10.4622      2.00000
     22     -10.4555      2.00000
     23     -10.4063      2.00000
     24     -10.3320      2.00000
     25     -10.3314      2.00000
     26     -10.3260      2.00000
     27     -10.2901      2.00000
     28     -10.2177      2.00000
     29     -10.1785      2.00000
     30     -10.0970      2.00000
     31     -10.0724      2.00000
     32     -10.0628      2.00000
     33      -9.9510      2.00000
     34      -9.9222      2.00000
     35      -9.9123      2.00000
     36      -9.9028      2.00000
     37      -9.8754      2.00000
     38      -9.8733      2.00000
     39      -9.8695      2.00000
     40      -9.8589      2.00000
     41      -9.7962      2.00000
     42      -9.7768      2.00000
     43      -9.7746      2.00000
     44      -9.7463      2.00000
     45      -9.6790      2.00000
     46      -9.6236      2.00000
     47      -9.5542      2.00000
     48      -9.5266      2.00000
     49       0.1260      2.00000
     50       0.1867      2.00000
     51       0.2537      2.00000
     52       0.2717      2.00000
     53       0.3229      2.00000
     54       0.3730      2.00000
     55       0.4206      2.00000
     56       0.5078      2.00000
     57       0.5894      2.00000
     58       0.6040      2.00000
     59       0.6107      2.00000
     60       0.6421      2.00000
     61       0.7170      2.00000
     62       0.7715      2.00000
     63       0.8203      2.00000
     64       0.8227      2.00000
     65       0.8570      2.00000
     66       1.0085      2.00000
     67       1.2391      2.00000
     68       1.2599      2.00000
     69       1.2851      2.00000
     70       1.3446      2.00000
     71       1.3935      2.00000
     72       1.4386      2.00000
     73       1.4694      2.00000
     74       1.5442      2.00000
     75       1.6073      2.00000
     76       1.6870      2.00000
     77       1.7565      2.00000
     78       1.8347      2.00000
     79       1.9021      2.00000
     80       1.9514      2.00000
     81       1.9657      2.00000
     82       1.9832      2.00000
     83       2.0117      2.00000
     84       2.0326      2.00000
     85       2.1689      2.00000
     86       2.2088      2.00000
     87       2.2126      2.00000
     88       2.2199      2.00000
     89       2.2601      2.00000
     90       2.3084      2.00000
     91       2.3109      2.00000
     92       2.3132      2.00000
     93       2.3461      2.00000
     94       2.5173      2.00000
     95       2.6999      2.00000
     96       2.7057      2.00000
     97       2.7888      2.00000
     98       2.8556      2.00000
     99       2.9175      2.00000
    100       3.0228      2.00000
    101       3.1105      2.00000
    102       3.1495      2.00000
    103       3.1858      2.00000
    104       3.1975      2.00000
    105       3.3538      2.00000
    106       3.4303      2.00000
    107       3.4982      2.00000
    108       3.5626      2.00000
    109       3.5644      2.00000
    110       3.6914      2.00000
    111       3.7415      2.00000
    112       3.7532      2.00000
    113       3.7685      2.00000
    114       3.8319      2.00000
    115       3.8913      2.00000
    116       3.9124      2.00000
    117       3.9287      2.00000
    118       3.9296      2.00000
    119       3.9622      2.00000
    120       4.1066      2.00000
    121       4.1093      2.00000
    122       4.1402      2.00000
    123       4.1590      2.00000
    124       4.2174      2.00000
    125       4.2645      2.00000
    126       4.2964      2.00000
    127       4.3147      2.00000
    128       4.3842      2.00000
    129       4.4981      2.00000
    130       4.4999      2.00000
    131       4.6489      2.00000
    132       4.6628      2.00000
    133       4.6839      2.00000
    134       4.6929      2.00000
    135       4.8061      2.00000
    136       4.8642      2.00000
    137       4.8643      2.00000
    138       4.8978      2.00000
    139       4.9131      2.00000
    140       4.9698      2.00000
    141       5.0237      2.00000
    142       5.0260      2.00000
    143       5.0805      2.00000
    144       5.0939      2.00000
    145       5.1139      2.00000
    146       5.1227      2.00000
    147       5.1405      2.00000
    148       5.1441      2.00000
    149       5.2041      2.00000
    150       5.2702      2.00000
    151       5.3050      2.00000
    152       5.3221      2.00000
    153       5.3477      2.00000
    154       5.3593      2.00000
    155       5.3826      2.00000
    156       5.3861      2.00000
    157       5.4821      2.00000
    158       5.4924      2.00000
    159       5.5779      2.00000
    160       5.5790      2.00000
    161       5.5837      2.00000
    162       5.6113      2.00000
    163       5.6329      2.00000
    164       5.6463      2.00000
    165       5.7361      2.00000
    166       5.7470      2.00000
[...]
   0.339E+01 -.298E+01 0.165E+02   -.329E+01 0.705E+00 -.157E+02   -.106E+00 0.228E+01 -.782E+00   -.523E-04 0.891E-05 -.291E-04
   0.339E+01 -.298E+01 0.165E+02   -.329E+01 0.705E+00 -.157E+02   -.106E+00 0.228E+01 -.782E+00   -.524E-04 0.862E-05 -.291E-04
   0.339E+01 -.298E+01 0.165E+02   -.329E+01 0.705E+00 -.157E+02   -.106E+00 0.228E+01 -.782E+00   -.524E-04 0.891E-05 -.291E-04
   0.339E+01 0.298E+01 -.165E+02   -.329E+01 -.705E+00 0.157E+02   -.106E+00 -.228E+01 0.782E+00   -.523E-04 -.876E-05 0.291E-04
   0.339E+01 0.298E+01 -.165E+02   -.329E+01 -.705E+00 0.157E+02   -.106E+00 -.228E+01 0.782E+00   -.523E-04 -.878E-05 0.291E-04
   0.339E+01 0.298E+01 -.165E+02   -.329E+01 -.705E+00 0.157E+02   -.106E+00 -.228E+01 0.782E+00   -.524E-04 -.876E-05 0.291E-04
   0.339E+01 0.298E+01 -.165E+02   -.329E+01 -.705E+00 0.157E+02   -.106E+00 -.228E+01 0.782E+00   -.524E-04 -.878E-05 0.291E-04
   -.339E+01 -.298E+01 -.165E+02   0.329E+01 0.705E+00 0.157E+02   0.106E+00 0.228E+01 0.782E+00   0.524E-04 0.881E-05 0.291E-04
   -.339E+01 -.298E+01 -.165E+02   0.329E+01 0.705E+00 0.157E+02   0.106E+00 0.228E+01 0.782E+00   0.524E-04 0.873E-05 0.291E-04
   -.339E+01 -.298E+01 -.165E+02   0.329E+01 0.705E+00 0.157E+02   0.106E+00 0.228E+01 0.782E+00   0.523E-04 0.881E-05 0.291E-04
   -.339E+01 -.298E+01 -.165E+02   0.329E+01 0.705E+00 0.157E+02   0.106E+00 0.228E+01 0.782E+00   0.523E-04 0.873E-05 0.291E-04
   -.339E+01 0.298E+01 0.165E+02   0.329E+01 -.705E+00 -.157E+02   0.106E+00 -.228E+01 -.782E+00   0.524E-04 -.862E-05 -.291E-04
   -.339E+01 0.298E+01 0.165E+02   0.329E+01 -.705E+00 -.157E+02   0.106E+00 -.228E+01 -.782E+00   0.524E-04 -.892E-05 -.291E-04
   -.339E+01 0.298E+01 0.165E+02   0.329E+01 -.705E+00 -.157E+02   0.106E+00 -.228E+01 -.782E+00   0.523E-04 -.862E-05 -.291E-04
   -.339E+01 0.298E+01 0.165E+02   0.329E+01 -.705E+00 -.157E+02   0.106E+00 -.228E+01 -.782E+00   0.523E-04 -.892E-05 -.291E-04
   -.339E+01 0.298E+01 -.165E+02   0.329E+01 -.705E+00 0.157E+02   0.106E+00 -.228E+01 0.782E+00   0.523E-04 -.862E-05 0.291E-04
   -.339E+01 0.298E+01 -.165E+02   0.329E+01 -.705E+00 0.157E+02   0.106E+00 -.228E+01 0.782E+00   0.523E-04 -.892E-05 0.291E-04
   -.339E+01 0.298E+01 -.165E+02   0.329E+01 -.705E+00 0.157E+02   0.106E+00 -.228E+01 0.782E+00   0.523E-04 -.862E-05 0.291E-04
   -.339E+01 0.298E+01 -.165E+02   0.329E+01 -.705E+00 0.157E+02   0.106E+00 -.228E+01 0.782E+00   0.523E-04 -.892E-05 0.291E-04
   -.339E+01 -.298E+01 0.165E+02   0.329E+01 0.705E+00 -.157E+02   0.106E+00 0.228E+01 -.782E+00   0.523E-04 0.881E-05 -.291E-04
   -.339E+01 -.298E+01 0.165E+02   0.329E+01 0.705E+00 -.157E+02   0.106E+00 0.228E+01 -.782E+00   0.523E-04 0.873E-05 -.291E-04
   -.339E+01 -.298E+01 0.165E+02   0.329E+01 0.705E+00 -.157E+02   0.106E+00 0.228E+01 -.782E+00   0.523E-04 0.881E-05 -.291E-04
   -.339E+01 -.298E+01 0.165E+02   0.329E+01 0.705E+00 -.157E+02   0.106E+00 0.228E+01 -.782E+00   0.523E-04 0.873E-05 -.291E-04
   0.339E+01 0.298E+01 0.165E+02   -.329E+01 -.705E+00 -.157E+02   -.106E+00 -.228E+01 -.782E+00   -.523E-04 -.876E-05 -.291E-04
   0.339E+01 0.298E+01 0.165E+02   -.329E+01 -.705E+00 -.157E+02   -.106E+00 -.228E+01 -.782E+00   -.523E-04 -.878E-05 -.291E-04
   0.339E+01 0.298E+01 0.165E+02   -.329E+01 -.705E+00 -.157E+02   -.106E+00 -.228E+01 -.782E+00   -.523E-04 -.876E-05 -.291E-04
   0.339E+01 0.298E+01 0.165E+02   -.329E+01 -.705E+00 -.157E+02   -.106E+00 -.228E+01 -.782E+00   -.523E-04 -.878E-05 -.291E-04
   0.339E+01 -.298E+01 -.165E+02   -.329E+01 0.705E+00 0.157E+02   -.106E+00 0.228E+01 0.782E+00   -.523E-04 0.862E-05 0.291E-04
   0.339E+01 -.298E+01 -.165E+02   -.329E+01 0.705E+00 0.157E+02   -.106E+00 0.228E+01 0.782E+00   -.523E-04 0.891E-05 0.291E-04
   0.339E+01 -.298E+01 -.165E+02   -.329E+01 0.705E+00 0.157E+02   -.106E+00 0.228E+01 0.782E+00   -.523E-04 0.862E-05 0.291E-04
   0.339E+01 -.298E+01 -.165E+02   -.329E+01 0.705E+00 0.157E+02   -.106E+00 0.228E+01 0.782E+00   -.523E-04 0.891E-05 0.291E-04
   0.674E+01 0.329E+01 -.185E+02   -.546E+01 -.259E+01 0.194E+02   -.129E+01 -.699E+00 -.986E+00   -.153E-04 0.166E-05 0.539E-05
   0.674E+01 0.329E+01 -.185E+02   -.546E+01 -.259E+01 0.194E+02   -.129E+01 -.699E+00 -.986E+00   -.153E-04 0.229E-05 0.539E-05
   0.674E+01 0.329E+01 -.185E+02   -.546E+01 -.259E+01 0.194E+02   -.129E+01 -.699E+00 -.986E+00   -.156E-04 0.166E-05 0.539E-05
   0.674E+01 0.329E+01 -.185E+02   -.546E+01 -.259E+01 0.194E+02   -.129E+01 -.699E+00 -.986E+00   -.156E-04 0.229E-05 0.539E-05
   0.674E+01 -.329E+01 0.185E+02   -.546E+01 0.259E+01 -.194E+02   -.129E+01 0.699E+00 0.986E+00   -.153E-04 -.204E-05 -.537E-05
   0.674E+01 -.329E+01 0.185E+02   -.546E+01 0.259E+01 -.194E+02   -.129E+01 0.699E+00 0.986E+00   -.153E-04 -.192E-05 -.537E-05
   0.674E+01 -.329E+01 0.185E+02   -.546E+01 0.259E+01 -.194E+02   -.129E+01 0.699E+00 0.986E+00   -.156E-04 -.204E-05 -.537E-05
   0.674E+01 -.329E+01 0.185E+02   -.546E+01 0.259E+01 -.194E+02   -.129E+01 0.699E+00 0.986E+00   -.156E-04 -.192E-05 -.537E-05
   -.674E+01 0.329E+01 0.185E+02   0.546E+01 -.259E+01 -.194E+02   0.129E+01 -.699E+00 0.986E+00   0.156E-04 0.214E-05 -.537E-05
   -.674E+01 0.329E+01 0.185E+02   0.546E+01 -.259E+01 -.194E+02   0.129E+01 -.699E+00 0.986E+00   0.156E-04 0.182E-05 -.537E-05
   -.674E+01 0.329E+01 0.185E+02   0.546E+01 -.259E+01 -.194E+02   0.129E+01 -.699E+00 0.986E+00   0.153E-04 0.214E-05 -.537E-05
   -.674E+01 0.329E+01 0.185E+02   0.546E+01 -.259E+01 -.194E+02   0.129E+01 -.699E+00 0.986E+00   0.153E-04 0.182E-05 -.537E-05
   -.674E+01 -.329E+01 -.185E+02   0.546E+01 0.259E+01 0.194E+02   0.129E+01 0.699E+00 -.986E+00   0.156E-04 -.163E-05 0.536E-05
   -.674E+01 -.329E+01 -.185E+02   0.546E+01 0.259E+01 0.194E+02   0.129E+01 0.699E+00 -.986E+00   0.156E-04 -.233E-05 0.535E-05
   -.674E+01 -.329E+01 -.185E+02   0.546E+01 0.259E+01 0.194E+02   0.129E+01 0.699E+00 -.986E+00   0.153E-04 -.163E-05 0.535E-05
   -.674E+01 -.329E+01 -.185E+02   0.546E+01 0.259E+01 0.194E+02   0.129E+01 0.699E+00 -.986E+00   0.153E-04 -.233E-05 0.535E-05
   -.674E+01 -.329E+01 0.185E+02   0.546E+01 0.259E+01 -.194E+02   0.129E+01 0.699E+00 0.986E+00   0.154E-04 -.163E-05 -.537E-05
   -.674E+01 -.329E+01 0.185E+02   0.546E+01 0.259E+01 -.194E+02   0.129E+01 0.699E+00 0.986E+00   0.154E-04 -.233E-05 -.537E-05
   -.674E+01 -.329E+01 0.185E+02   0.546E+01 0.259E+01 -.194E+02   0.129E+01 0.699E+00 0.986E+00   0.155E-04 -.163E-05 -.537E-05
   -.674E+01 -.329E+01 0.185E+02   0.546E+01 0.259E+01 -.194E+02   0.129E+01 0.699E+00 0.986E+00   0.155E-04 -.233E-05 -.537E-05
   -.674E+01 0.329E+01 -.185E+02   0.546E+01 -.259E+01 0.194E+02   0.129E+01 -.699E+00 -.986E+00   0.154E-04 0.214E-05 0.539E-05
   -.674E+01 0.329E+01 -.185E+02   0.546E+01 -.259E+01 0.194E+02   0.129E+01 -.699E+00 -.986E+00   0.154E-04 0.182E-05 0.539E-05
   -.674E+01 0.329E+01 -.185E+02   0.546E+01 -.259E+01 0.194E+02   0.129E+01 -.699E+00 -.986E+00   0.155E-04 0.214E-05 0.539E-05
   -.674E+01 0.329E+01 -.185E+02   0.546E+01 -.259E+01 0.194E+02   0.129E+01 -.699E+00 -.986E+00   0.155E-04 0.182E-05 0.539E-05
   0.674E+01 -.329E+01 -.185E+02   -.546E+01 0.259E+01 0.194E+02   -.129E+01 0.699E+00 -.986E+00   -.154E-04 -.204E-05 0.535E-05
   0.674E+01 -.329E+01 -.185E+02   -.546E+01 0.259E+01 0.194E+02   -.129E+01 0.699E+00 -.986E+00   -.154E-04 -.192E-05 0.535E-05
   0.674E+01 -.329E+01 -.185E+02   -.546E+01 0.259E+01 0.194E+02   -.129E+01 0.699E+00 -.986E+00   -.155E-04 -.204E-05 0.535E-05
   0.674E+01 -.329E+01 -.185E+02   -.546E+01 0.259E+01 0.194E+02   -.129E+01 0.699E+00 -.986E+00   -.155E-04 -.192E-05 0.535E-05
   0.674E+01 0.329E+01 0.185E+02   -.546E+01 -.259E+01 -.194E+02   -.129E+01 -.699E+00 0.986E+00   -.154E-04 0.166E-05 -.538E-05
   0.674E+01 0.329E+01 0.185E+02   -.546E+01 -.259E+01 -.194E+02   -.129E+01 -.699E+00 0.986E+00   -.154E-04 0.229E-05 -.537E-05
   0.674E+01 0.329E+01 0.185E+02   -.546E+01 -.259E+01 -.194E+02   -.129E+01 -.699E+00 0.986E+00   -.155E-04 0.166E-05 -.538E-05
   0.674E+01 0.329E+01 0.185E+02   -.546E+01 -.259E+01 -.194E+02   -.129E+01 -.699E+00 0.986E+00   -.155E-04 0.229E-05 -.537E-05
   -.200E+02 -.810E-04 -.410E-05   0.209E+02 0.116E-04 0.396E-04   -.916E+00 -.339E-20 0.136E-19   0.183E-05 -.209E-06 -.200E-07
   -.200E+02 -.788E-04 -.118E-06   0.209E+02 -.415E-05 0.471E-05   -.916E+00 -.339E-20 0.678E-20   0.183E-05 0.209E-06 -.162E-07
   -.200E+02 -.810E-04 -.410E-05   0.209E+02 0.116E-04 0.396E-04   -.916E+00 0.105E-18 0.136E-19   0.159E-05 -.209E-06 -.200E-07
   -.200E+02 -.788E-04 -.118E-06   0.209E+02 -.415E-05 0.471E-05   -.916E+00 -.339E-20 0.678E-20   0.159E-05 0.209E-06 -.162E-07
   0.200E+02 -.734E-04 -.305E-04   -.209E+02 -.140E-05 -.184E-04   0.916E+00 -.136E-19 0.000E+00   -.157E-05 0.287E-06 0.163E-07
   0.200E+02 -.750E-04 -.265E-04   -.209E+02 0.153E-04 -.420E-04   0.916E+00 -.136E-19 -.339E-20   -.157E-05 -.287E-06 0.199E-07
   0.200E+02 -.734E-04 -.305E-04   -.209E+02 -.140E-05 -.184E-04   0.916E+00 -.136E-19 0.000E+00   -.185E-05 0.287E-06 0.163E-07
   0.200E+02 -.750E-04 -.265E-04   -.209E+02 0.153E-04 -.420E-04   0.916E+00 -.136E-19 0.508E-19   -.185E-05 -.287E-06 0.199E-07
   0.200E+02 -.841E-04 -.333E-04   -.209E+02 -.386E-05 0.116E-04   0.916E+00 -.105E-18 -.136E-19   -.179E-05 0.287E-06 -.163E-07
   0.200E+02 -.857E-04 -.374E-04   -.209E+02 0.128E-04 0.352E-04   0.916E+00 -.105E-18 -.678E-20   -.179E-05 -.287E-06 -.199E-07
   0.200E+02 -.841E-04 -.333E-04   -.209E+02 -.386E-05 0.116E-04   0.916E+00 0.339E-20 -.136E-19   -.163E-05 0.287E-06 -.163E-07
   0.200E+02 -.857E-04 -.374E-04   -.209E+02 0.128E-04 0.352E-04   0.916E+00 0.339E-20 -.678E-20   -.163E-05 -.287E-06 -.199E-07
   -.200E+02 -.806E-04 0.674E-05   0.209E+02 0.140E-04 -.464E-04   -.916E+00 0.678E-20 0.000E+00   0.181E-05 -.209E-06 0.201E-07
   -.200E+02 -.785E-04 0.276E-05   0.209E+02 -.169E-05 -.115E-04   -.916E+00 0.136E-19 -.542E-19   0.181E-05 0.209E-06 0.162E-07
   -.200E+02 -.806E-04 0.674E-05   0.209E+02 0.140E-04 -.464E-04   -.916E+00 0.678E-20 0.000E+00   0.161E-05 -.209E-06 0.201E-07
   -.200E+02 -.785E-04 0.276E-05   0.209E+02 -.169E-05 -.115E-04   -.916E+00 0.136E-19 -.542E-19   0.161E-05 0.209E-06 0.162E-07
 -----------------------------------------------------------------------------------------------
   0.174E-02 -.380E-02 0.232E-03   0.426E-13 -.605E-13 -.977E-13   -.222E-14 0.533E-14 -.133E-14   0.398E-08 -.226E-08 0.775E-09
 
 
 POSITION                                       TOTAL-FORCE (eV/Angst)
 -----------------------------------------------------------------------------------
      1.21211      0.15511      2.73888         0.000004      0.000703     -0.000665
      1.21211      5.09587      2.73888         0.000004      0.000703     -0.000665
      6.01634      0.15511      2.73888         0.000004      0.000703     -0.000665
      6.01634      5.09587      2.73888         0.000004      0.000703     -0.000665
      1.21211      2.31527      4.28410         0.000004     -0.000703      0.000665
      1.21211      7.25603      4.28410         0.000004     -0.000703      0.000665
      6.01634      2.31527      4.28410         0.000004     -0.000703      0.000665
      6.01634      7.25603      4.28410         0.000004     -0.000703      0.000665
      1.19000      2.62549      0.77261        -0.000004      0.000703      0.000665
      1.19000      7.56625      0.77261        -0.000004      0.000703      0.000665
      5.99423      2.62549      0.77261        -0.000004      0.000703      0.000665
      5.99423      7.56625      0.77261        -0.000004      0.000703      0.000665
      1.19000      4.78565      6.25037        -0.000004     -0.000703     -0.000665
      1.19000      9.72641      6.25037        -0.000004     -0.000703     -0.000665
      5.99423      4.78565      6.25037        -0.000004     -0.000703     -0.000665
      5.99423      9.72641      6.25037        -0.000004     -0.000703     -0.000665
      3.59212      4.78565      4.28410        -0.000004     -0.000703      0.000665
      3.59212      9.72641      4.28410        -0.000004     -0.000703      0.000665
      8.39635      4.78565      4.28410        -0.000004     -0.000703      0.000665
      8.39635      9.72641      4.28410        -0.000004     -0.000703      0.000665
      3.59212      2.62549      2.73888        -0.000004      0.000703     -0.000665
      3.59212      7.56625      2.73888        -0.000004      0.000703     -0.000665
      8.39635      2.62549      2.73888        -0.000004      0.000703     -0.000665
      8.39635      7.56625      2.73888        -0.000004      0.000703     -0.000665
      3.61423      2.31527      6.25037         0.000004     -0.000703     -0.000665
      3.61423      7.25603      6.25037         0.000004     -0.000703     -0.000665
      8.41846      2.31527      6.25037         0.000004     -0.000703     -0.000665
      8.41846      7.25603      6.25037         0.000004     -0.000703     -0.000665
      3.61423      0.15511      0.77261         0.000004      0.000703      0.000665
      3.61423      5.09587      0.77261         0.000004      0.000703      0.000665
      8.41846      0.15511      0.77261         0.000004      0.000703      0.000665
      8.41846      5.09587      0.77261         0.000004      0.000703      0.000665
      0.51440      0.50589      4.59407         0.000236      0.000549      0.000471
      0.51440      5.44665      4.59407         0.000236      0.000549      0.000471
      5.31863      0.50589      4.59407         0.000236      0.000549      0.000471
      5.31863      5.44665      4.59407         0.000236      0.000549      0.000471
      0.51440      1.96449      2.42891         0.000236     -0.000549     -0.000471
      0.51440      6.90525      2.42891         0.000236     -0.000549     -0.000471
      5.31863      1.96449      2.42891         0.000236     -0.000549     -0.000471
      5.31863      6.90525      2.42891         0.000236     -0.000549     -0.000471
      1.88771      2.97627      5.94040        -0.000236      0.000549     -0.000471
      1.88771      7.91703      5.94040        -0.000236      0.000549     -0.000471
      6.69194      2.97627      5.94040        -0.000236      0.000549     -0.000471
      6.69194      7.91703      5.94040        -0.000236      0.000549     -0.000471
      1.88771      4.43487      1.08258        -0.000236     -0.000549      0.000471
      1.88771      9.37563      1.08258        -0.000236     -0.000549      0.000471
      6.69194      4.43487      1.08258        -0.000236     -0.000549      0.000471
      6.69194      9.37563      1.08258        -0.000236     -0.000549      0.000471
      4.28983      4.43487      2.42891        -0.000236     -0.000549     -0.000471
      4.28983      9.37563      2.42891        -0.000236     -0.000549     -0.000471
      9.09406      4.43487      2.42891        -0.000236     -0.000549     -0.000471
      9.09406      9.37563      2.42891        -0.000236     -0.000549     -0.000471
      4.28983      2.97627      4.59407        -0.000236      0.000549      0.000471
      4.28983      7.91703      4.59407        -0.000236      0.000549      0.000471
      9.09406      2.97627      4.59407        -0.000236      0.000549      0.000471
      9.09406      7.91703      4.59407        -0.000236      0.000549      0.000471
      2.91652      1.96449      1.08258         0.000236     -0.000549      0.000471
      2.91652      6.90525      1.08258         0.000236     -0.000549      0.000471
      7.72075      1.96449      1.08258         0.000236     -0.000549      0.000471
      7.72075      6.90525      1.08258         0.000236     -0.000549      0.000471
      2.91652      0.50589      5.94040         0.000236      0.000549     -0.000471
      2.91652      5.44665      5.94040         0.000236      0.000549     -0.000471
      7.72075      0.50589      5.94040         0.000236      0.000549     -0.000471
      7.72075      5.44665      5.94040         0.000236      0.000549     -0.000471
      0.24111      1.23519     -0.00000         0.000255     -0.000000      0.000000
      0.24111      6.17595     -0.00000         0.000255     -0.000000      0.000000
      5.04535      1.23519     -0.00000         0.000255     -0.000000      0.000000
      5.04535      6.17595     -0.00000         0.000255     -0.000000      0.000000
      2.16100      3.70557      3.51149        -0.000255     -0.000000      0.000000
      2.16100      8.64633      3.51149        -0.000255     -0.000000      0.000000
      6.96523      3.70557      3.51149        -0.000255     -0.000000      0.000000
      6.96523      8.64633      3.51149        -0.000255     -0.000000      0.000000
      4.56312      3.70557     -0.00000        -0.000255     -0.000000      0.000000
      4.56312      8.64633     -0.00000        -0.000255     -0.000000      0.000000
      9.36735      3.70557     -0.00000        -0.000255     -0.000000      0.000000
      9.36735      8.64633     -0.00000        -0.000255     -0.000000      0.000000
      2.64323      1.23519      3.51149         0.000255     -0.000000      0.000000
      2.64323      6.17595      3.51149         0.000255     -0.000000      0.000000
      7.44746      1.23519      3.51149         0.000255     -0.000000     -0.000000
      7.44746      6.17595      3.51149         0.000255     -0.000000      0.000000
 -----------------------------------------------------------------------------------
    total drift:                                0.001741     -0.003802      0.000232


--------------------------------------------------------------------------------------------------------



  FREE ENERGIE OF THE ION-ELECTRON SYSTEM (eV)
  ---------------------------------------------------
  free  energy   TOTEN  =      -591.76907331 eV

  energy  without entropy=     -591.76966754  energy(sigma->0) =     -591.76927138
 
 d Force = 0.2374545E-06[-0.327E-08, 0.478E-06]  d Energy = 0.2820407E-03-0.282E-03
 d Force =-0.4269775E-02[-0.427E-02,-0.427E-02]  d Ewald  =-0.4370678E+01 0.437E+01


--------------------------------------------------------------------------------------------------------


    POTLOK:  cpu time    0.0226: real time    0.0227


--------------------------------------------------------------------------------------------------------


 stress matrix after NEB project (eV)
      0.01227      0.00000     -0.00000
      0.00000     -0.05051      0.00000
      0.00000      0.00000     -0.06817
  FORCES: max atom, RMS     0.000968    0.000787
  FORCE total and by dimension    0.007039    0.000703
  Stress total and by dimension    0.085725    0.068166


--------------------------------------------------------------------------------------------------------


  
 reached required accuracy - stopping structural energy minimisation
 writing wavefunctions
     LOOP+:  cpu time   15.2353: real time   16.4399
    4ORBIT:  cpu time    0.0001: real time    0.0003

 total amount of memory used by VASP MPI-rank0    40056. kBytes
=======================================================================

   base      :      30000. kBytes
   nonlr-proj:       2323. kBytes
   fftplans  :        617. kBytes
   grid      :        999. kBytes
   one-center:         15. kBytes
   wavefun   :       6102. kBytes
 
  
  
 General timing and accounting informations for this job:
 ========================================================
  
                  Total CPU time used (sec):       73.888
                            User time (sec):       73.042
                          System time (sec):        0.847
                         Elapsed time (sec):       80.562
  
                   Maximum memory used (kb):      100988.
                   Average memory used (kb):           0.
  
                          Minor page faults:        83358
                          Major page faults:          402
                 Voluntary context switches:         2085
