
     Program PWSCF v.7.4 starts on 29Dec2024 at 19:23:38 

     This program is part of the open-source Quantum ESPRESSO suite
     for quantum simulation of materials; please cite
         "P. Giannozzi et al., J. Phys.:Condens. Matter 21 395502 (2009);
         "P. Giannozzi et al., J. Phys.:Condens. Matter 29 465901 (2017);
         "P. Giannozzi et al., J. Chem. Phys. 152 154105 (2020);
          URL http://www.quantum-espresso.org", 
     in publications or presentations arising from this work. More details at
     http://www.quantum-espresso.org/quote

     Parallel version (MPI), running on     4 processors

     MPI processes distributed on     1 nodes
     150431 MiB available memory on the printing compute node when the environment starts

     Reading input from input.in

     Current dimensions of program PWSCF are:
     Max number of different atomic species (ntypx) = 10
     Max number of k-points (npk) =  40000
     Max angular momentum in pseudopotentials (lmaxx) =  4
     file O.pbe-n-kjpaw_psl.0.1.UPF: wavefunction(s)  2P renormalized

     R & G space division:  proc/nbgrp/npool/nimage =       4
     Subspace diagonalization in iterative solution of the eigenvalue problem:
     a serial algorithm will be used


     Parallelization info
     --------------------
     sticks:   dense  smooth     PW     G-vecs:    dense   smooth      PW
     Min         249     124     40                 4714     1660     311
     Max         250     125     41                 4715     1661     312
     Sum         997     499    161                18857     6643    1245

     Using Slab Decomposition



     bravais-lattice index     =            0
     lattice parameter (alat)  =       7.1647  a.u.
     unit-cell volume          =     194.9922 (a.u.)^3
     number of atoms/cell      =            3
     number of atomic types    =            2
     number of electrons       =        15.00
     number of Kohn-Sham states=           12
     kinetic-energy cutoff     =      40.0000  Ry
     charge density cutoff     =     320.0000  Ry
     scf convergence threshold =      1.0E-08
     mixing beta               =       0.7000
     number of iterations used =            8  plain     mixing
     energy convergence thresh.=      1.0E-04
     force convergence thresh. =      1.0E-03
     press convergence thresh. =      5.0E-01
     Exchange-correlation= SLA  PW   PBX  PBC
                           (   1   4   3   4   0   0   0)
     nstep                     =           50


     celldm(1)=   7.164692  celldm(2)=   0.000000  celldm(3)=   0.000000
     celldm(4)=   0.000000  celldm(5)=   0.000000  celldm(6)=   0.000000

     crystal axes: (cart. coord. in units of alat)
               a(1) = (   0.908428  -0.418042   0.000000 )  
               a(2) = (   0.908428   0.418042   0.000000 )  
               a(3) = (   0.716052   0.000000   0.698047 )  

     reciprocal axes: (cart. coord. in units 2 pi/alat)
               b(1) = (  0.550402 -1.196052 -0.564599 )  
               b(2) = (  0.550402  1.196052 -0.564599 )  
               b(3) = ( -0.000000  0.000000  1.432569 )  


     PseudoPot. # 1 for Li read from file:
     ./li_pbe_v1.4.uspp.F.UPF
     MD5 check sum: e912e257baa3777c20ea3d68f190483c
     Pseudo is Ultrasoft, Zval =  3.0
     Generated by new atomic code, or converted to UPF format
     Using radial grid of  751 points,  5 beta functions with: 
                l(1) =   0
                l(2) =   0
                l(3) =   0
                l(4) =   1
                l(5) =   1
     Q(r) pseudized with 10 coefficients,  rinner =    1.150   1.150   1.150


     PseudoPot. # 2 for O  read from file:
     ./O.pbe-n-kjpaw_psl.0.1.UPF
     MD5 check sum: 0234752ac141de4415c5fc33072bef88
     Pseudo is Projector augmented-wave + core cor, Zval =  6.0
     Generated using "atomic" code by A. Dal Corso  v.5.0.99 svn rev. 10869
     Shape of augmentation charge: BESSEL
     Using radial grid of 1095 points,  4 beta functions with: 
                l(1) =   0
                l(2) =   0
                l(3) =   1
                l(4) =   1
     Q(r) pseudized with 0 coefficients 


     atomic species   valence    mass     pseudopotential
     Li                3.00     1.00000     Li( 1.00)
     O                 6.00     1.00000     O ( 1.00)

     No symmetry found



   Cartesian axes

     site n.     atom                  positions (alat units)
         1        Li     tau(   1) = (   0.1318777   0.1318777   0.1318777  )
         2        O      tau(   2) = (   0.0729426   0.0729426   0.0729426  )
         3        O      tau(   3) = (   0.1908128   0.1908128   0.1908128  )

     number of k points=    36  Gaussian smearing, width (Ry)=  0.0200
                       cart. coord. in units 2pi/alat
        k(    1) = (   0.0000000   0.0000000   0.0000000), wk =   0.0312500
        k(    2) = (   0.0000000   0.0000000   0.3581423), wk =   0.0625000
        k(    3) = (   0.0000000   0.0000000  -0.7162845), wk =   0.0312500
        k(    4) = (   0.1376004   0.2990130  -0.1411497), wk =   0.0625000
        k(    5) = (   0.1376004   0.2990130   0.2169925), wk =   0.0625000
        k(    6) = (   0.1376004   0.2990130  -0.8574343), wk =   0.0625000
        k(    7) = (   0.1376004   0.2990130  -0.4992920), wk =   0.0625000
        k(    8) = (  -0.2752008  -0.5980260   0.2822994), wk =   0.0312500
        k(    9) = (  -0.2752008  -0.5980260   0.6404417), wk =   0.0625000
        k(   10) = (  -0.2752008  -0.5980260  -0.4339851), wk =   0.0312500
        k(   11) = (   0.2752008   0.0000000  -0.2822994), wk =   0.0625000
        k(   12) = (   0.2752008   0.0000000   0.0758428), wk =   0.0625000
        k(   13) = (   0.2752008   0.0000000  -0.9985840), wk =   0.0625000
        k(   14) = (   0.2752008   0.0000000  -0.6404417), wk =   0.0625000
        k(   15) = (  -0.1376004  -0.8970390   0.1411497), wk =   0.0625000
        k(   16) = (  -0.1376004  -0.8970390   0.4992920), wk =   0.0625000
        k(   17) = (  -0.1376004  -0.8970390  -0.5751348), wk =   0.0625000
        k(   18) = (  -0.1376004  -0.8970390  -0.2169925), wk =   0.0625000
        k(   19) = (   0.0000000  -0.5980260   0.0000000), wk =   0.0625000
        k(   20) = (   0.0000000  -0.5980260   0.3581423), wk =   0.0625000
        k(   21) = (   0.0000000  -0.5980260  -0.7162845), wk =   0.0625000
        k(   22) = (  -0.5504015   0.0000000   0.5645989), wk =   0.0312500
        k(   23) = (  -0.5504015   0.0000000   0.9227412), wk =   0.0625000
        k(   24) = (  -0.5504015   0.0000000  -0.1516856), wk =   0.0312500
        k(   25) = (  -0.1376004   0.2990130   0.1411497), wk =   0.0625000
        k(   26) = (  -0.1376004   0.2990130  -0.2169925), wk =   0.0625000
        k(   27) = (  -0.1376004   0.2990130   0.8574343), wk =   0.0625000
        k(   28) = (  -0.1376004   0.2990130   0.4992920), wk =   0.0625000
        k(   29) = (   0.2752008  -0.5980260  -0.2822994), wk =   0.0312500
        k(   30) = (   0.2752008  -0.5980260  -0.6404417), wk =   0.0625000
        k(   31) = (   0.2752008  -0.5980260   0.4339851), wk =   0.0312500
        k(   32) = (   0.1376004  -0.8970390  -0.1411497), wk =   0.0625000
        k(   33) = (   0.1376004  -0.8970390  -0.4992920), wk =   0.0625000
        k(   34) = (   0.1376004  -0.8970390   0.5751348), wk =   0.0625000
        k(   35) = (   0.1376004  -0.8970390   0.2169925), wk =   0.0625000
        k(   36) = (   0.0000000  -0.5980260  -0.3581423), wk =   0.0625000

     Dense  grid:    18857 G-vectors     FFT dimensions: (  45,  45,  45)

     Smooth grid:     6643 G-vectors     FFT dimensions: (  30,  30,  30)

     Estimated max dynamical RAM per process >      11.94 MB

     Estimated total dynamical RAM >      47.78 MB

     Check: negative core charge=   -0.000005

     Initial potential from superposition of free atoms

     starting charge      14.5493, renormalised to      15.0000
     Starting wfcs are   13 randomized atomic wfcs
     Checking if some PAW data can be deallocated... 

     total cpu time spent up to now is        0.6 secs

     Self-consistent Calculation

     iteration #  1     ecut=    40.00 Ry     beta= 0.70
     Davidson diagonalization with overlap
     ethr =  1.00E-02,  avg # of iterations =  5.4

     total cpu time spent up to now is        1.2 secs

     total energy              =     -70.25199772 Ry
     estimated scf accuracy    <       0.90727949 Ry

     iteration #  2     ecut=    40.00 Ry     beta= 0.70
     Davidson diagonalization with overlap
     ethr =  6.05E-03,  avg # of iterations =  2.1

     total cpu time spent up to now is        1.7 secs

     total energy              =     -70.47787309 Ry
     estimated scf accuracy    <       0.18760742 Ry

     iteration #  3     ecut=    40.00 Ry     beta= 0.70
     Davidson diagonalization with overlap
     ethr =  1.25E-03,  avg # of iterations =  2.4

     total cpu time spent up to now is        2.2 secs

     total energy              =     -70.52209389 Ry
     estimated scf accuracy    <       0.00505602 Ry

     iteration #  4     ecut=    40.00 Ry     beta= 0.70
     Davidson diagonalization with overlap
     ethr =  3.37E-05,  avg # of iterations =  3.1

     total cpu time spent up to now is        2.6 secs

     total energy              =     -70.52263152 Ry
     estimated scf accuracy    <       0.00002655 Ry

     iteration #  5     ecut=    40.00 Ry     beta= 0.70
     Davidson diagonalization with overlap
     ethr =  1.77E-07,  avg # of iterations =  3.4

     total cpu time spent up to now is        3.1 secs

     total energy              =     -70.52264589 Ry
     estimated scf accuracy    <       0.00000162 Ry

     iteration #  6     ecut=    40.00 Ry     beta= 0.70
     Davidson diagonalization with overlap
     ethr =  1.08E-08,  avg # of iterations =  2.0

     total cpu time spent up to now is        3.6 secs

     total energy              =     -70.52264606 Ry
     estimated scf accuracy    <       0.00000011 Ry

     iteration #  7     ecut=    40.00 Ry     beta= 0.70
     Davidson diagonalization with overlap
     ethr =  7.06E-10,  avg # of iterations =  2.0

     total cpu time spent up to now is        4.0 secs

     End of self-consistent calculation

          k = 0.0000 0.0000 0.0000 (   829 PWs)   bands (ev):

  -147.4485 -39.9890 -20.9009 -20.8933 -11.6494   1.3646   1.8181   6.9987
    10.3507  13.1498  18.7414  19.0668

          k = 0.0000 0.0000 0.3581 (   829 PWs)   bands (ev):

  -147.4334 -39.9977 -21.0412 -20.9175 -11.0435   1.5824   1.7433   6.2484
    10.6640  14.3626  15.0360  17.2607

          k = 0.0000 0.0000-0.7163 (   822 PWs)   bands (ev):

  -147.4247 -40.0058 -21.1628 -20.9378 -10.3942   1.4390   2.0601   5.9105
     9.4627  14.5063  15.5358  16.2329

          k = 0.1376 0.2990-0.1411 (   829 PWs)   bands (ev):

  -147.4329 -39.9949 -21.0537 -20.9115 -11.0840   1.5278   1.7883   6.5059
    10.8016  14.1218  14.6439  17.5386

          k = 0.1376 0.2990 0.2170 (   828 PWs)   bands (ev):

  -147.4342 -40.0072 -20.9843 -20.9479 -10.8448   1.8132   2.0865   4.7725
    10.1092  13.8749  16.5818  17.1892

          k = 0.1376 0.2990-0.8574 (   842 PWs)   bands (ev):

  -147.4419 -40.0157 -21.0919 -21.0054 -10.2007   1.7981   2.1762   5.2784
     9.0751  11.6569  14.5843  16.7574

          k = 0.1376 0.2990-0.4993 (   834 PWs)   bands (ev):

  -147.4543 -40.0036 -21.1517 -20.9609 -10.4696   1.4764   1.9195   8.4533
     8.8683  10.1907  15.1076  17.7173

          k =-0.2752-0.5980 0.2823 (   822 PWs)   bands (ev):

  -147.4241 -40.0004 -21.1878 -20.9273 -10.4879   1.5045   1.9487   6.4111
     9.9512  13.6470  15.1062  16.2427

          k =-0.2752-0.5980 0.6404 (   842 PWs)   bands (ev):

  -147.4405 -40.0131 -21.1089 -20.9957 -10.2506   1.8513   2.0707   5.6995
     8.9730  11.3657  14.7876  17.1186

          k =-0.2752-0.5980-0.4340 (   840 PWs)   bands (ev):

  -147.4639 -40.0249 -21.0802 -20.9949  -9.9881   2.2191   2.4256   5.2232
     6.5005  12.0176  14.0720  17.7708

          k = 0.2752 0.0000-0.2823 (   828 PWs)   bands (ev):

  -147.4385 -39.9970 -21.0512 -20.9226 -11.0093   1.3663   1.9514   7.7756
     9.0496  12.2611  15.8752  17.0744

          k = 0.2752 0.0000 0.0758 (   814 PWs)   bands (ev):

  -147.4191 -39.9916 -20.9147 -20.9021 -11.3821   1.4433   1.9010   5.7796
     8.8910  14.8807  18.8661  19.3997

          k = 0.2752 0.0000-0.9986 (   831 PWs)   bands (ev):

  -147.4411 -40.0010 -21.0444 -20.9388 -10.7767   1.6529   1.8041   4.9900
     9.9932  13.0724  16.2832  17.7929

          k = 0.2752 0.0000-0.6404 (   832 PWs)   bands (ev):

  -147.4404 -40.0054 -21.1769 -20.9453 -10.3785   1.2588   2.2148   6.8653
     9.6514  11.8896  13.4717  17.2162

          k =-0.1376-0.8970 0.1411 (   842 PWs)   bands (ev):

  -147.4519 -40.0038 -21.1547 -20.9791 -10.4326   1.4497   1.9732   7.2442
     9.7652  11.6695  14.1929  14.7127

          k =-0.1376-0.8970 0.4993 (   831 PWs)   bands (ev):

  -147.4352 -39.9983 -21.0557 -20.9339 -10.8204   1.6284   1.8064   5.2844
     9.7826  13.3217  16.4228  17.2298

          k =-0.1376-0.8970-0.5751 (   832 PWs)   bands (ev):

  -147.4179 -40.0102 -21.0114 -20.9544 -10.5656   1.8924   2.1756   4.2877
     8.9671  11.8156  16.7359  18.0412

          k =-0.1376-0.8970-0.2170 (   836 PWs)   bands (ev):

  -147.4469 -40.0151 -21.1031 -21.0057 -10.1645   1.5916   2.4196   6.1995
     8.6601  10.2962  13.3214  18.5288

          k = 0.0000-0.5980 0.0000 (   834 PWs)   bands (ev):

  -147.4135 -40.0096 -21.1037 -21.0014 -10.4060   1.7953   2.0151   6.2121
    10.2031  12.3645  14.4965  15.6763

          k = 0.0000-0.5980 0.3581 (   832 PWs)   bands (ev):

  -147.4390 -40.0009 -21.1971 -20.9370 -10.4478   1.2700   2.1065   7.3364
     9.9207  11.5008  13.8024  16.4831

          k = 0.0000-0.5980-0.7163 (   836 PWs)   bands (ev):

  -147.4453 -40.0132 -21.1168 -20.9950 -10.1869   1.5900   2.2857   6.5230
     8.5296  10.3273  13.3829  18.3459

          k =-0.5504 0.0000 0.5646 (   840 PWs)   bands (ev):

  -147.4813 -40.0059 -21.1898 -20.9468 -10.3745   1.1035   2.4434   8.4560
     9.5546  10.1824  11.9832  16.8199

          k =-0.5504 0.0000 0.9227 (   832 PWs)   bands (ev):

  -147.4495 -40.0006 -21.0553 -20.9430 -10.7439   1.3957   2.0466   5.7979
     8.8907  13.0761  14.7884  18.1839

          k =-0.5504 0.0000-0.1517 (   828 PWs)   bands (ev):

  -147.4389 -39.9956 -20.9414 -20.9083 -11.1343   1.6092   1.9796   4.3566
     8.3833  15.9017  18.7199  19.3985

          k =-0.1376 0.2990 0.1411 (   829 PWs)   bands (ev):

  -147.4565 -40.0037 -20.9993 -20.9411 -11.0051   1.6836   2.0089   6.3201
    10.9131  11.6725  15.5774  19.0930

          k =-0.1376 0.2990-0.2170 (   828 PWs)   bands (ev):

  -147.4372 -39.9950 -21.0604 -20.9172 -11.0294   1.3093   1.9695   7.7452
     9.0500  12.6240  16.1693  16.9112

          k =-0.1376 0.2990 0.8574 (   842 PWs)   bands (ev):

  -147.4514 -40.0046 -21.1517 -20.9785 -10.4068   1.3962   1.9770   6.8848
     9.6945  12.3184  14.1097  14.8561

          k =-0.1376 0.2990 0.4993 (   834 PWs)   bands (ev):

  -147.4153 -40.0121 -21.0855 -21.0121 -10.3597   1.7420   2.0966   5.9253
    10.0388  12.5555  14.9659  15.5306

          k = 0.2752-0.5980-0.2823 (   822 PWs)   bands (ev):

  -147.3883 -40.0181 -21.0960 -20.9825 -10.2994   2.0929   2.2212   6.1882
     8.5601  13.0572  13.3401  18.3158

          k = 0.2752-0.5980-0.6404 (   842 PWs)   bands (ev):

  -147.4546 -40.0106 -21.1157 -21.0012 -10.3660   1.5432   2.1904   7.4416
     9.6442  10.1560  14.5887  14.8859

          k = 0.2752-0.5980 0.4340 (   840 PWs)   bands (ev):

  -147.4698 -40.0021 -21.2071 -20.9403 -10.4162   1.0748   2.3281   8.4442
     9.7070  10.5770  12.2302  16.6773

          k = 0.1376-0.8970-0.1411 (   842 PWs)   bands (ev):

  -147.4638 -40.0125 -21.1014 -21.0130 -10.3468   1.5505   2.2999   7.1693
     9.4596  10.4776  14.1437  15.1798

          k = 0.1376-0.8970-0.4993 (   831 PWs)   bands (ev):

  -147.4379 -40.0066 -21.0227 -20.9475 -10.7355   1.6699   2.0991   6.5233
     8.3249  10.5304  17.5356  18.0956

          k = 0.1376-0.8970 0.5751 (   832 PWs)   bands (ev):

  -147.4471 -39.9986 -21.0621 -20.9388 -10.7657   1.3567   2.0463   5.8130
     8.8784  13.5480  14.8052  17.8114

          k = 0.1376-0.8970 0.2170 (   836 PWs)   bands (ev):

  -147.4151 -40.0037 -21.1504 -20.9964 -10.3434   1.4930   1.8230   6.6992
    10.6456  11.9754  12.8352  15.8244

          k = 0.0000-0.5980-0.3581 (   832 PWs)   bands (ev):

  -147.4496 -40.0217 -21.0842 -20.9937 -10.1546   2.1201   2.3147   5.8686
     7.4864  11.0473  16.0504  18.1349

     the Fermi energy is     6.3096 ev

!    total energy              =     -70.52264608 Ry
     estimated scf accuracy    <          2.9E-10 Ry
     smearing contrib. (-TS)   =      -0.00247517 Ry
     internal energy E=F+TS    =     -70.52017091 Ry

     The total energy is F=E-TS. E is the sum of the following terms:
     one-electron contribution =    -130.09953160 Ry
     hartree contribution      =      61.61060793 Ry
     xc contribution           =     -21.79224421 Ry
     ewald contribution        =      38.66917453 Ry
     one-center paw contrib.   =     -18.90817757 Ry

     convergence has been achieved in   7 iterations

     Forces acting on atoms (cartesian axes, Ry/au):

     atom    1 type  1   force =    -0.00002173   -0.00002741   -0.00002596
     atom    2 type  2   force =   -31.54800889  -31.54792000  -31.55794948
     atom    3 type  2   force =    31.54803062   31.54794741   31.55797544

     Total force =    77.284600     Total SCF correction =     0.000038


     Computing stress (Cartesian axis) and pressure

          total   stress  (Ry/bohr**3)                   (kbar)     P=    19723.88
   0.13389836   0.13577980   0.13577538        19697.13    19973.90    19973.25
   0.13577980   0.13408422   0.13583275        19973.90    19724.47    19981.69
   0.13577538   0.13583275   0.13425804        19973.25    19981.69    19750.04


     BFGS Geometry Optimization
     Energy error            =      4.6E+04 Ry
     Gradient error          =      3.2E+01 Ry/Bohr
     Cell gradient error     =      2.0E+04 kbar

     number of scf cycles    =   1
     number of bfgs steps    =   0

     enthalpy           new  =     -70.5226460836 Ry

     new trust radius        =       0.5000000000 bohr
     new conv_thr            =       0.0000000100 Ry

     new unit-cell volume =    212.91855 a.u.^3 (    31.55127 Ang^3 )
     density =      0.15789 g/cm^3

CELL_PARAMETERS (angstrom)
   3.500466328  -1.526602746   0.057720864
   3.598916306   1.740539813   0.156209236
   2.880175978   0.166544042   2.812156026

ATOMIC_POSITIONS (angstrom)
Li               0.5463705119        0.5463983022        0.5464176835
O                0.1352905075        0.1352978252        0.1352540811
O                0.9574508658        0.9574992109        0.9575816968



     Writing config-only to output data dir ./tmp/pwscf.save/ :
     XML data file
     NEW-OLD atomic charge density approx. for the potential
     New effective cutoffs (rho, wfc):  320.16   40.01

     Check: negative core charge=   -0.000004

     total cpu time spent up to now is        4.4 secs

     Self-consistent Calculation

     iteration #  1     ecut=    40.00 Ry     beta= 0.70
     Davidson diagonalization with overlap
     c_bands:  1 eigenvalues not converged
     c_bands:  1 eigenvalues not converged
     ethr =  1.00E-06,  avg # of iterations = 12.8

     total cpu time spent up to now is        5.8 secs

     total energy              =     -93.10202166 Ry
     estimated scf accuracy    <       0.64332184 Ry

     iteration #  2     ecut=    40.00 Ry     beta= 0.70
     Davidson diagonalization with overlap
     ethr =  4.29E-03,  avg # of iterations =  2.0

     total cpu time spent up to now is        6.3 secs

     total energy              =     -93.23942217 Ry
     estimated scf accuracy    <       0.04234278 Ry

     iteration #  3     ecut=    40.00 Ry     beta= 0.70
     Davidson diagonalization with overlap
     ethr =  2.82E-04,  avg # of iterations =  2.1

     total cpu time spent up to now is        6.7 secs

     total energy              =     -93.24381756 Ry
     estimated scf accuracy    <       0.00244459 Ry

     iteration #  4     ecut=    40.00 Ry     beta= 0.70
     Davidson diagonalization with overlap
     ethr =  1.63E-05,  avg # of iterations =  3.4

     total cpu time spent up to now is        7.3 secs

     total energy              =     -93.24440828 Ry
     estimated scf accuracy    <       0.00018251 Ry

     iteration #  5     ecut=    40.00 Ry     beta= 0.70
     Davidson diagonalization with overlap
     ethr =  1.22E-06,  avg # of iterations =  3.2

     total cpu time spent up to now is        7.8 secs

     total energy              =     -93.24446057 Ry
     estimated scf accuracy    <       0.00000943 Ry

     iteration #  6     ecut=    40.00 Ry     beta= 0.70
     Davidson diagonalization with overlap
     ethr =  6.29E-08,  avg # of iterations =  2.4

     total cpu time spent up to now is        8.3 secs

     total energy              =     -93.24446376 Ry
     estimated scf accuracy    <       0.00000102 Ry

     iteration #  7     ecut=    40.00 Ry     beta= 0.70
     Davidson diagonalization with overlap
     ethr =  6.81E-09,  avg # of iterations =  2.0

     total cpu time spent up to now is        8.7 secs

     total energy              =     -93.24446402 Ry
     estimated scf accuracy    <       0.00000003 Ry

     iteration #  8     ecut=    40.00 Ry     beta= 0.70
     Davidson diagonalization with overlap
     ethr =  1.76E-10,  avg # of iterations =  2.8

     total cpu time spent up to now is        9.2 secs

     End of self-consistent calculation

          k = 0.0000 0.0000 0.0000 (   829 PWs)   bands (ev):

   -72.0279 -22.0655 -12.7544  -6.0784  -5.9782  -1.9080  -1.3696   2.5923
     7.8459  12.5372  16.8739  18.7843

          k =-0.0102-0.0102 0.3481 (   829 PWs)   bands (ev):

   -72.0274 -22.1422 -12.2327  -6.6234  -6.1981  -1.6338  -1.3564   1.9773
     9.0411  12.9585  15.5147  16.9142

          k = 0.0204 0.0204-0.6962 (   822 PWs)   bands (ev):

   -72.0268 -22.2156 -11.5968  -7.3263  -6.3297  -1.7254  -1.0101   1.5522
     9.6891  13.4694  15.3095  16.5478

          k = 0.1293 0.2907-0.1496 (   829 PWs)   bands (ev):

   -72.0274 -22.1185 -12.3086  -6.6737  -6.1821  -1.7203  -1.3102   2.1853
     9.1479  12.8740  15.4271  17.0039

          k = 0.1191 0.2805 0.1985 (   828 PWs)   bands (ev):

   -72.0271 -22.2359 -11.9488  -6.6235  -6.3045  -1.2445  -1.0016   1.1927
     7.9815  13.6183  14.5865  18.7646

          k = 0.1496 0.3111-0.8458 (   842 PWs)   bands (ev):

   -72.0269 -22.3041 -11.3397  -7.0656  -6.6618  -1.2647  -0.8578   1.1931
     7.7017  13.4917  15.6925  17.3101

          k = 0.1394 0.3009-0.4977 (   834 PWs)   bands (ev):

   -72.0268 -22.1904 -11.7576  -7.0501  -6.5466  -1.6331  -1.2183   2.0721
     9.5140  11.6111  15.8351  17.0346

          k =-0.2585-0.5815 0.2992 (   822 PWs)   bands (ev):

   -72.0268 -22.1699 -11.7621  -7.4159  -6.2925  -1.6950  -1.1326   1.9279
    10.2641  13.2009  14.5379  16.7448

          k =-0.2687-0.5916 0.6473 (   842 PWs)   bands (ev):

   -72.0268 -22.2820 -11.4274  -7.0915  -6.6634  -1.2220  -0.9738   1.4251
     7.8221  13.3508  15.3065  17.6185

          k =-0.2382-0.5611-0.3970 (   840 PWs)   bands (ev):

   -72.0269 -22.3901 -11.0694  -7.1502  -6.5876  -0.8012  -0.6103   0.7976
     6.1287  12.8333  15.6654  18.3241

          k = 0.2755 0.0002-0.2822 (   828 PWs)   bands (ev):

   -72.0274 -22.1358 -12.2541  -6.7214  -6.1546  -1.8581  -1.1894   2.3232
     9.4751  11.1750  16.3181  17.1316

          k = 0.2653-0.0100 0.0659 (   814 PWs)   bands (ev):

   -72.0277 -22.1097 -12.4829  -6.3053  -6.0241  -1.7783  -1.2667   1.7963
     8.5060  12.0819  17.1520  19.3588

          k = 0.2959 0.0206-0.9784 (   831 PWs)   bands (ev):

   -72.0275 -22.1853 -11.9126  -6.7749  -6.3655  -1.5061  -1.1902   1.1456
     9.3285  13.4459  15.6124  16.4203

          k = 0.2857 0.0104-0.6303 (   832 PWs)   bands (ev):

   -72.0270 -22.2104 -11.5990  -7.4263  -6.3072  -1.9397  -0.8220   1.7763
    10.0012  12.5009  14.9281  16.0348

          k =-0.1123-0.8720 0.1666 (   842 PWs)   bands (ev):

   -72.0270 -22.1870 -11.7127  -7.1388  -6.6554  -1.5916  -1.1059   1.8880
    10.1501  12.1986  15.2475  15.8390

          k =-0.1224-0.8822 0.5147 (   831 PWs)   bands (ev):

   -72.0274 -22.1620 -11.9942  -6.7894  -6.3868  -1.5660  -1.1931   1.3805
     9.4538  13.2538  15.6484  16.4883

          k =-0.0919-0.8516-0.5296 (   832 PWs)   bands (ev):

   -72.0270 -22.2742 -11.6756  -6.7817  -6.3465  -1.1798  -0.9101   0.7681
     7.6816  12.5550  16.1907  18.1396

          k =-0.1021-0.8618-0.1815 (   836 PWs)   bands (ev):

   -72.0268 -22.2983 -11.3502  -7.2141  -6.5960  -1.5074  -0.6076   1.4495
     7.7042  13.1085  15.1974  16.4125

          k = 0.0170-0.5813 0.0170 (   834 PWs)   bands (ev):

   -72.0268 -22.2406 -11.6647  -7.0815  -6.6725  -1.2554  -1.0364   1.8679
     9.1484  13.3586  14.1569  15.8544

          k = 0.0068-0.5914 0.3651 (   832 PWs)   bands (ev):

   -72.0270 -22.1719 -11.7161  -7.4680  -6.2913  -1.9443  -0.9571   1.9575
    10.5743  12.3890  15.0004  16.0317

          k = 0.0374-0.5609-0.6792 (   836 PWs)   bands (ev):

   -72.0268 -22.2831 -11.3874  -7.2107  -6.5919  -1.5208  -0.7410   1.4857
     7.9197  13.1151  15.0953  16.5645

          k =-0.5510-0.0004 0.5644 (   840 PWs)   bands (ev):

   -72.0273 -22.2053 -11.5959  -7.5576  -6.2630  -2.1194  -0.5904   1.9445
     9.8372  13.3173  13.3331  15.8039

          k =-0.5612-0.0106 0.9125 (   832 PWs)   bands (ev):

   -72.0275 -22.1791 -11.9347  -6.8914  -6.2982  -1.7740  -1.0013   1.4579
     9.7661  11.6846  15.9825  17.4497

          k =-0.5307 0.0200-0.1318 (   828 PWs)   bands (ev):

   -72.0279 -22.1533 -12.1910  -6.5629  -6.0741  -1.5869  -1.1703   1.0513
     8.8733  12.0451  17.6983  19.6611

          k =-0.1463 0.2905 0.1326 (   829 PWs)   bands (ev):

   -72.0275 -22.1906 -12.2156  -6.6080  -6.2344  -1.4381  -1.1125   2.1619
     8.6954  11.4276  15.5733  18.2046

          k =-0.1361 0.3007-0.2155 (   828 PWs)   bands (ev):

   -72.0274 -22.1200 -12.2810  -6.7391  -6.1511  -1.9397  -1.1634   2.2817
     9.5481  11.4527  16.4705  17.2959

          k =-0.1666 0.2702 0.8288 (   842 PWs)   bands (ev):

   -72.0270 -22.1944 -11.6608  -7.1076  -6.6623  -1.6456  -1.0834   1.6636
    10.1685  12.4113  15.2617  16.0429

          k =-0.1564 0.2803 0.4807 (   834 PWs)   bands (ev):

   -72.0268 -22.2630 -11.5796  -7.0666  -6.6668  -1.3049  -0.9320   1.6846
     8.9427  13.6211  14.3356  15.4963

          k = 0.2925-0.5811-0.2652 (   822 PWs)   bands (ev):

   -72.0264 -22.3090 -11.5550  -7.2951  -6.4617  -0.9668  -0.8413   1.9973
     8.3522  12.5197  13.4335  17.1573

          k = 0.3027-0.5709-0.6133 (   842 PWs)   bands (ev):

   -72.0270 -22.2421 -11.6290  -7.2032  -6.5935  -1.5306  -0.8642   1.9758
     9.4175  11.9656  15.3449  15.6787

          k = 0.2722-0.6014 0.4310 (   840 PWs)   bands (ev):

   -72.0272 -22.1741 -11.6631  -7.5652  -6.2537  -2.1701  -0.7224   1.8983
    10.3614  13.4807  13.5857  15.8305

          k = 0.1633-0.8718-0.1156 (   842 PWs)   bands (ev):

   -72.0271 -22.2575 -11.5916  -7.2114  -6.6024  -1.5140  -0.7346   1.9608
     9.1180  12.0698  14.9467  15.8520

          k = 0.1734-0.8616-0.4637 (   831 PWs)   bands (ev):

   -72.0273 -22.2297 -11.9617  -6.7366  -6.2785  -1.4683  -1.0173   1.7986
     8.4600  10.7511  16.7184  18.9810

          k = 0.1429-0.8922 0.5806 (   832 PWs)   bands (ev):

   -72.0274 -22.1634 -11.9626  -6.8876  -6.3270  -1.8226  -0.9922   1.4302
     9.9329  11.7615  16.2259  17.4880

          k = 0.1531-0.8820 0.2325 (   836 PWs)   bands (ev):

   -72.0268 -22.1907 -11.6166  -7.1391  -6.8120  -1.4691  -1.1754   1.5626
    11.1991  13.1989  14.3207  15.0907

          k = 0.0272-0.5711-0.3311 (   832 PWs)   bands (ev):

   -72.0268 -22.3501 -11.3195  -7.2171  -6.5267  -0.9327  -0.7428   1.4806
     6.9856  12.6607  15.2958  17.3244

     the Fermi energy is     1.7193 ev

!    total energy              =     -93.24446403 Ry
     estimated scf accuracy    <          1.6E-09 Ry
     smearing contrib. (-TS)   =      -0.00456474 Ry
     internal energy E=F+TS    =     -93.23989929 Ry

     The total energy is F=E-TS. E is the sum of the following terms:
     one-electron contribution =     -72.78517461 Ry
     hartree contribution      =      39.70987909 Ry
     xc contribution           =     -19.32918526 Ry
     ewald contribution        =     -21.83682354 Ry
     one-center paw contrib.   =     -18.99859497 Ry

     convergence has been achieved in   8 iterations

     Forces acting on atoms (cartesian axes, Ry/au):

     atom    1 type  1   force =     0.00002178    0.00001627    0.00002046
     atom    2 type  2   force =    -2.49866075   -2.45059223   -2.47406472
     atom    3 type  2   force =     2.49863897    2.45057596    2.47404426

     Total force =     6.061280     Total SCF correction =     0.000196


     Computing stress (Cartesian axis) and pressure

          total   stress  (Ry/bohr**3)                   (kbar)     P=     2623.00
   0.01772951   0.01801134   0.01793764         2608.10     2649.56     2638.72
   0.01801134   0.01783891   0.01805266         2649.56     2624.19     2655.64
   0.01793764   0.01805266   0.01792398         2638.72     2655.64     2636.71

     Energy error            =      2.3E+01 Ry
     Gradient error          =      2.5E+00 Ry/Bohr
     Cell gradient error     =      2.7E+03 kbar

     number of scf cycles    =   2
     number of bfgs steps    =   1

     enthalpy           old  =     -70.5226460836 Ry
     enthalpy           new  =     -93.2444640255 Ry

     CASE: enthalpy          _new < enthalpy          _old

     new trust radius        =       0.7329731488 bohr
     new conv_thr            =       0.0000000100 Ry

     new unit-cell volume =    304.65455 a.u.^3 (    45.14515 Ang^3 )
     density =      0.11035 g/cm^3

CELL_PARAMETERS (angstrom)
   3.782348087  -1.230433568   0.342975188
   4.383561542   2.535771896   0.947108509
   3.714385997   1.018820970   3.658501993

ATOMIC_POSITIONS (angstrom)
Li               0.7813005813        0.7841085495        0.7840765372
O                0.3074709767        0.3364460599        0.3232564033
O                1.2550629376        1.2317123338        1.2448308773



     Writing config-only to output data dir ./tmp/pwscf.save/ :
     XML data file
     NEW-OLD atomic charge density approx. for the potential
     New effective cutoffs (rho, wfc):  319.55   40.07

     Check: negative core charge=   -0.000017

     negative rho (up, down):  1.662E-02 0.000E+00

     total cpu time spent up to now is        9.6 secs

     Self-consistent Calculation

     iteration #  1     ecut=    40.00 Ry     beta= 0.70
     Davidson diagonalization with overlap
     ethr =  1.00E-06,  avg # of iterations = 13.9

     total cpu time spent up to now is       11.1 secs

     total energy              =     -94.00083345 Ry
     estimated scf accuracy    <       0.31308771 Ry

     iteration #  2     ecut=    40.00 Ry     beta= 0.70
     Davidson diagonalization with overlap
     ethr =  2.09E-03,  avg # of iterations =  2.0

     total cpu time spent up to now is       11.6 secs

     total energy              =     -94.07580110 Ry
     estimated scf accuracy    <       0.01974347 Ry

     iteration #  3     ecut=    40.00 Ry     beta= 0.70
     Davidson diagonalization with overlap
     ethr =  1.32E-04,  avg # of iterations =  2.1

     total cpu time spent up to now is       12.0 secs

     total energy              =     -94.07945357 Ry
     estimated scf accuracy    <       0.00064972 Ry

     iteration #  4     ecut=    40.00 Ry     beta= 0.70
     Davidson diagonalization with overlap
     ethr =  4.33E-06,  avg # of iterations =  4.7

     total cpu time spent up to now is       12.6 secs

     total energy              =     -94.07969251 Ry
     estimated scf accuracy    <       0.00008963 Ry

     iteration #  5     ecut=    40.00 Ry     beta= 0.70
     Davidson diagonalization with overlap
     ethr =  5.98E-07,  avg # of iterations =  2.0

     total cpu time spent up to now is       13.0 secs

     total energy              =     -94.07971215 Ry
     estimated scf accuracy    <       0.00000173 Ry

     iteration #  6     ecut=    40.00 Ry     beta= 0.70
     Davidson diagonalization with overlap
     ethr =  1.15E-08,  avg # of iterations =  3.9

     total cpu time spent up to now is       13.6 secs

     total energy              =     -94.07971333 Ry
     estimated scf accuracy    <       0.00000107 Ry

     iteration #  7     ecut=    40.00 Ry     beta= 0.70
     Davidson diagonalization with overlap
     ethr =  7.15E-09,  avg # of iterations =  2.0

     total cpu time spent up to now is       14.0 secs

     total energy              =     -94.07971347 Ry
     estimated scf accuracy    <       0.00000006 Ry

     iteration #  8     ecut=    40.00 Ry     beta= 0.70
     Davidson diagonalization with overlap
     ethr =  4.03E-10,  avg # of iterations =  3.2

     total cpu time spent up to now is       14.5 secs

     End of self-consistent calculation

          k = 0.0000 0.0000 0.0000 (   829 PWs)   bands (ev):

   -66.2572 -22.3941 -15.1790  -7.6746  -7.3849  -4.2324  -3.7782   0.8680
     4.4487   6.8273  11.9245  13.0340

          k =-0.0427-0.0436 0.3146 (   829 PWs)   bands (ev):

   -66.2559 -22.3937 -14.9363  -7.9425  -7.6514  -4.1801  -3.9162   0.7560
     5.6999   7.3093  12.2640  12.4872

          k = 0.0855 0.0873-0.6292 (   822 PWs)   bands (ev):

   -66.2544 -22.3984 -14.6773  -8.4418  -7.6622  -4.3831  -3.7672   0.6408
     7.0354   8.9925   9.2450  12.6957

          k = 0.1018 0.2638-0.1769 (   829 PWs)   bands (ev):

   -66.2559 -22.3956 -14.9313  -7.9552  -7.6821  -4.1363  -3.9020   0.8646
     5.7174   7.0678  12.3542  12.6487

          k = 0.0591 0.2201 0.1378 (   828 PWs)   bands (ev):

   -66.2552 -22.4614 -14.9136  -7.8624  -7.4830  -4.0264  -3.6697   0.2033
     4.5519   7.3749  11.6123  13.0769

          k = 0.1873 0.3511-0.8061 (   842 PWs)   bands (ev):

   -66.2561 -22.4691 -14.6568  -8.0400  -7.8629  -4.0089  -3.7492  -0.0620
     5.1397   9.0649  11.2853  11.8694

          k = 0.1446 0.3074-0.4915 (   834 PWs)   bands (ev):

   -66.2560 -22.4147 -14.6833  -8.4244  -7.7619  -4.2267  -3.9016   0.3732
     6.8790   8.1564  11.3080  11.3974

          k =-0.2037-0.5276 0.3537 (   822 PWs)   bands (ev):

   -66.2542 -22.4033 -14.6665  -8.4958  -7.6871  -4.3207  -3.7326   0.8406
     6.8456   9.0988   9.1274  12.3481

          k =-0.2464-0.5712 0.6683 (   842 PWs)   bands (ev):

   -66.2561 -22.4718 -14.6522  -8.0944  -7.8482  -4.0123  -3.6995   0.0280
     5.0613   8.9478  11.3674  11.8924

          k =-0.1182-0.4403-0.2755 (   840 PWs)   bands (ev):

   -66.2570 -22.5416 -14.6404  -8.0716  -7.5699  -3.7870  -3.5076  -0.7488
     3.8843   9.4022  10.8023  11.9009

          k = 0.2764 0.0009-0.2808 (   828 PWs)   bands (ev):

   -66.2566 -22.3993 -14.9077  -7.9773  -7.7207  -4.1864  -3.8625   0.6972
     6.2664   6.6289  12.1444  12.7981

          k = 0.2336-0.0427 0.0338 (   814 PWs)   bands (ev):

   -66.2557 -22.3913 -15.1125  -7.8278  -7.3678  -4.1897  -3.7418   0.6811
     5.2446   7.1346  10.8352  13.7042

          k = 0.3618 0.0882-0.9101 (   831 PWs)   bands (ev):

   -66.2550 -22.4040 -14.8852  -7.9708  -7.7611  -4.1707  -3.8871   0.4023
     6.0080   8.5932  10.6635  12.3283

          k = 0.3191 0.0446-0.5955 (   832 PWs)   bands (ev):

   -66.2554 -22.4073 -14.6516  -8.4355  -7.7593  -4.3746  -3.7339   0.4898
     6.7133   8.9087  10.1833  12.1258

          k =-0.0292-0.7904 0.2497 (   842 PWs)   bands (ev):

   -66.2556 -22.4114 -14.6521  -8.4026  -7.8644  -4.2215  -3.8938   0.5376
     6.6927   8.5787  10.8797  11.9720

          k =-0.0719-0.8341 0.5644 (   831 PWs)   bands (ev):

   -66.2550 -22.4053 -14.8789  -7.9647  -7.8142  -4.1096  -3.8952   0.5050
     6.1364   8.1917  10.6464  12.5410

          k = 0.0563-0.7031-0.3795 (   832 PWs)   bands (ev):

   -66.2560 -22.4620 -14.8406  -8.0042  -7.4844  -3.9582  -3.6541  -0.1271
     4.8256   9.0892  10.1796  11.9133

          k = 0.0135-0.7468-0.0649 (   836 PWs)   bands (ev):

   -66.2563 -22.4752 -14.6249  -8.0784  -7.9262  -3.9913  -3.7162  -0.1571
     5.1488  10.3031  10.4138  11.5863

          k = 0.0727-0.5266 0.0729 (   834 PWs)   bands (ev):

   -66.2548 -22.4587 -14.6444  -8.1193  -7.8984  -3.9945  -3.6675   0.6340
     5.1763   7.8257  11.6221  12.0554

          k = 0.0299-0.5703 0.3875 (   832 PWs)   bands (ev):

   -66.2554 -22.4121 -14.6457  -8.4845  -7.7866  -4.3144  -3.7110   0.6280
     6.7349   8.9641  10.0142  12.0605

          k = 0.1581-0.4393-0.5564 (   836 PWs)   bands (ev):

   -66.2565 -22.4767 -14.6255  -8.1261  -7.9113  -4.0151  -3.6879  -0.0461
     5.2168  10.1570  10.3049  11.4746

          k =-0.5527-0.0019 0.5617 (   840 PWs)   bands (ev):

   -66.2566 -22.4230 -14.6366  -8.4411  -7.8359  -4.4228  -3.7098   0.2255
     6.3601   9.4447  10.3852  11.8591

          k =-0.5955-0.0455 0.8763 (   832 PWs)   bands (ev):

   -66.2561 -22.4105 -14.8556  -8.0420  -7.7872  -4.1801  -3.8518   0.3280
     6.3506   7.9188  10.7977  12.7810

          k =-0.4673 0.0854-0.0675 (   828 PWs)   bands (ev):

   -66.2554 -22.4050 -15.0642  -7.9894  -7.3827  -4.1566  -3.7740   0.3223
     5.9247   7.5433   9.8602  15.0628

          k =-0.1745 0.2629 0.1040 (   829 PWs)   bands (ev):

   -66.2570 -22.4669 -14.9175  -7.9705  -7.4687  -3.9996  -3.6686   0.4118
     4.9092   6.1423  11.8575  12.9493

          k =-0.1318 0.3065-0.2106 (   828 PWs)   bands (ev):

   -66.2565 -22.4014 -14.9081  -7.9714  -7.7619  -4.1455  -3.8562   0.7541
     6.1997   6.6902  12.1096  13.1887

          k =-0.2600 0.1756 0.7332 (   842 PWs)   bands (ev):

   -66.2557 -22.4121 -14.6592  -8.3950  -7.8634  -4.2332  -3.8959   0.5012
     6.9269   8.5369  10.7474  11.9093

          k =-0.2172 0.2192 0.4186 (   834 PWs)   bands (ev):

   -66.2550 -22.4564 -14.6497  -8.0662  -7.9127  -3.9895  -3.7281   0.5299
     5.3585   7.7735  11.7326  11.7671

          k = 0.3490-0.5257-0.2080 (   822 PWs)   bands (ev):

   -66.2549 -22.5098 -14.6068  -8.2846  -7.5318  -3.6818  -3.5419   0.4692
     4.1842   8.4458   8.9417  12.7128

          k = 0.3918-0.4821-0.5226 (   842 PWs)   bands (ev):

   -66.2563 -22.4741 -14.6307  -8.1911  -7.9275  -4.0485  -3.6636   0.3586
     5.2179   8.4562  10.5293  12.1891

          k = 0.2636-0.6130 0.4213 (   840 PWs)   bands (ev):

   -66.2567 -22.4230 -14.6316  -8.4782  -7.8630  -4.3722  -3.6951   0.4156
     6.5855   9.2054  10.5307  11.9934

          k = 0.2472-0.7895-0.0311 (   842 PWs)   bands (ev):

   -66.2563 -22.4743 -14.6335  -8.1523  -7.9351  -4.0233  -3.7109   0.2408
     5.1883   8.4970  10.6028  12.3553

          k = 0.2899-0.7458-0.3457 (   831 PWs)   bands (ev):

   -66.2569 -22.4681 -14.8458  -8.1103  -7.4679  -3.9480  -3.6564   0.1257
     5.1267   7.3445  11.1134  11.6012

          k = 0.1617-0.8768 0.5981 (   832 PWs)   bands (ev):

   -66.2560 -22.4128 -14.8568  -8.0202  -7.8457  -4.1212  -3.8700   0.3847
     6.5009   7.8201  10.6262  12.8080

          k = 0.2045-0.8331 0.2835 (   836 PWs)   bands (ev):

   -66.2546 -22.4007 -14.6136  -8.3724  -7.9587  -4.2037  -3.8404   0.7818
     6.7674   8.8424  11.1524  11.4550

          k = 0.1154-0.4830-0.2417 (   832 PWs)   bands (ev):

   -66.2565 -22.5346 -14.6332  -8.1810  -7.5583  -3.7201  -3.5485  -0.3577
     4.0883   8.5264  10.1965  12.3217

     the Fermi energy is     0.4183 ev

!    total energy              =     -94.07971349 Ry
     estimated scf accuracy    <          3.2E-09 Ry
     smearing contrib. (-TS)   =      -0.00583181 Ry
     internal energy E=F+TS    =     -94.07388169 Ry

     The total energy is F=E-TS. E is the sum of the following terms:
     one-electron contribution =     -80.92026659 Ry
     hartree contribution      =      43.08562939 Ry
     xc contribution           =     -18.80837160 Ry
     ewald contribution        =     -18.37013619 Ry
     one-center paw contrib.   =     -19.06073669 Ry

     convergence has been achieved in   8 iterations

     Forces acting on atoms (cartesian axes, Ry/au):

     atom    1 type  1   force =    -0.00059703   -0.00059342   -0.00058817
     atom    2 type  2   force =    -1.78485510   -1.68027002   -1.73640240
     atom    3 type  2   force =     1.78545213    1.68086344    1.73699057

     Total force =     4.249045     Total SCF correction =     0.000118


     Computing stress (Cartesian axis) and pressure

          total   stress  (Ry/bohr**3)                   (kbar)     P=      920.40
   0.00677232   0.00775538   0.00806234          996.24     1140.86     1186.01
   0.00775538   0.00573261   0.00748497         1140.86      843.30     1101.08
   0.00806234   0.00748497   0.00626530         1186.01     1101.08      921.66

     Energy error            =      8.4E-01 Ry
     Gradient error          =      1.8E+00 Ry/Bohr
     Cell gradient error     =      1.2E+03 kbar

     number of scf cycles    =   3
     number of bfgs steps    =   2

     enthalpy           old  =     -93.2444640255 Ry
     enthalpy           new  =     -94.0797134933 Ry

     CASE: enthalpy          _new < enthalpy          _old

     new trust radius        =       0.2058097158 bohr
     new conv_thr            =       0.0000000100 Ry

     new unit-cell volume =    264.07466 a.u.^3 (    39.13183 Ang^3 )
     density =      0.12730 g/cm^3

CELL_PARAMETERS (angstrom)
   3.658722821  -1.139494514   0.372798833
   4.219721270   2.406920512   0.919412904
   3.591616234   0.964669512   3.514232861

ATOMIC_POSITIONS (angstrom)
Li               0.7516972849        0.7386861330        0.7471455067
O                0.2232708230        0.2933273869        0.2565635469
O                1.2818689801        1.1857705141        1.2394571614



     Writing config-only to output data dir ./tmp/pwscf.save/ :
     XML data file
     NEW-OLD atomic charge density approx. for the potential
     New effective cutoffs (rho, wfc):  352.33   44.10

     Check: negative core charge=   -0.000016

     total cpu time spent up to now is       14.9 secs

     Self-consistent Calculation

     iteration #  1     ecut=    40.00 Ry     beta= 0.70
     Davidson diagonalization with overlap
     c_bands:  1 eigenvalues not converged
     c_bands:  1 eigenvalues not converged
     c_bands:  1 eigenvalues not converged
     ethr =  1.00E-06,  avg # of iterations = 12.3

     total cpu time spent up to now is       16.3 secs

     total energy              =     -94.74671388 Ry
     estimated scf accuracy    <       0.03428128 Ry

     iteration #  2     ecut=    40.00 Ry     beta= 0.70
     Davidson diagonalization with overlap
     ethr =  2.29E-04,  avg # of iterations =  2.0

     total cpu time spent up to now is       16.7 secs

     total energy              =     -94.75211668 Ry
     estimated scf accuracy    <       0.00287270 Ry

     iteration #  3     ecut=    40.00 Ry     beta= 0.70
     Davidson diagonalization with overlap
     ethr =  1.92E-05,  avg # of iterations =  1.8

     total cpu time spent up to now is       17.1 secs

     total energy              =     -94.75256058 Ry
     estimated scf accuracy    <       0.00014521 Ry

     iteration #  4     ecut=    40.00 Ry     beta= 0.70
     Davidson diagonalization with overlap
     ethr =  9.68E-07,  avg # of iterations =  3.4

     total cpu time spent up to now is       17.7 secs

     total energy              =     -94.75257688 Ry
     estimated scf accuracy    <       0.00004447 Ry

     iteration #  5     ecut=    40.00 Ry     beta= 0.70
     Davidson diagonalization with overlap
     ethr =  2.96E-07,  avg # of iterations =  2.0

     total cpu time spent up to now is       18.1 secs

     total energy              =     -94.75258827 Ry
     estimated scf accuracy    <       0.00000263 Ry

     iteration #  6     ecut=    40.00 Ry     beta= 0.70
     Davidson diagonalization with overlap
     ethr =  1.76E-08,  avg # of iterations =  2.0

     total cpu time spent up to now is       18.6 secs

     total energy              =     -94.75258894 Ry
     estimated scf accuracy    <       0.00000009 Ry

     iteration #  7     ecut=    40.00 Ry     beta= 0.70
     Davidson diagonalization with overlap
     ethr =  6.12E-10,  avg # of iterations =  2.2

     total cpu time spent up to now is       19.0 secs

     End of self-consistent calculation

          k = 0.0000 0.0000 0.0000 (   829 PWs)   bands (ev):

   -61.3103 -20.3272 -14.6766  -5.6732  -5.3100  -3.3373  -2.5938  -0.1271
     5.7596   6.7276  12.7314  14.8912

          k =-0.0471-0.0434 0.3298 (   829 PWs)   bands (ev):

   -61.3044 -20.3523 -14.3327  -6.1584  -5.6581  -3.2027  -2.7796  -0.2152
     6.5690   7.6460  13.3407  13.9372

          k = 0.0942 0.0868-0.6595 (   822 PWs)   bands (ev):

   -61.3003 -20.3762 -13.9502  -6.8937  -5.7070  -3.4464  -2.5745  -0.3384
     6.9693  10.5825  10.6432  13.4284

          k = 0.1057 0.2790-0.1846 (   829 PWs)   bands (ev):

   -61.3042 -20.3488 -14.3423  -6.1831  -5.7137  -3.1854  -2.7296  -0.1145
     6.5128   7.6004  13.3435  14.1443

          k = 0.0586 0.2356 0.1452 (   828 PWs)   bands (ev):

   -61.3031 -20.4790 -14.2715  -6.0467  -5.4894  -2.9350  -2.4051  -0.6485
     5.1124   7.9843  12.8632  13.9830

          k = 0.1999 0.3658-0.8442 (   842 PWs)   bands (ev):

   -61.3064 -20.4996 -13.8964  -6.3438  -6.0564  -2.8972  -2.5179  -0.8121
     5.4812   9.9335  12.6456  13.0898

          k = 0.1528 0.3224-0.5144 (   834 PWs)   bands (ev):

   -61.3084 -20.3764 -13.9619  -6.8327  -5.8972  -3.1905  -2.7819  -0.4826
     6.7871   9.9139  12.3091  12.9286

          k =-0.2114-0.5580 0.3692 (   822 PWs)   bands (ev):

   -61.2983 -20.3707 -13.9663  -6.9936  -5.7462  -3.3794  -2.5444  -0.1525
     6.7953  10.7108  10.8149  13.1906

          k =-0.2585-0.6014 0.6990 (   842 PWs)   bands (ev):

   -61.3062 -20.4968 -13.9058  -6.4352  -6.0207  -2.9298  -2.4693  -0.6998
     5.4261   9.9319  12.5694  13.1194

          k =-0.1172-0.4713-0.2903 (   840 PWs)   bands (ev):

   -61.3117 -20.6191 -13.8462  -6.4219  -5.6345  -2.5377  -2.2141  -1.3703
     4.2930  10.5652  11.2700  13.0862

          k = 0.2891-0.0002-0.2954 (   828 PWs)   bands (ev):

   -61.3082 -20.3604 -14.2889  -6.2114  -5.7589  -3.2071  -2.7248  -0.2368
     6.3872   7.9423  13.0989  14.2384

          k = 0.2420-0.0436 0.0344 (   814 PWs)   bands (ev):

   -61.3042 -20.3469 -14.5780  -5.9389  -5.2950  -3.2345  -2.5682  -0.2886
     6.1283   7.5202  12.0475  14.9915

          k = 0.3833 0.0866-0.9550 (   831 PWs)   bands (ev):

   -61.3022 -20.3766 -14.2305  -6.2176  -5.8358  -3.1554  -2.7016  -0.5926
     6.5389   9.0755  12.2677  13.9999

          k = 0.3362 0.0432-0.6252 (   832 PWs)   bands (ev):

   -61.3034 -20.3864 -13.9042  -6.8860  -5.8451  -3.4671  -2.4782  -0.4465
     6.5722  10.5415  11.3870  13.7706

          k =-0.0280-0.8372 0.2584 (   842 PWs)   bands (ev):

   -61.3046 -20.3838 -13.9181  -6.8014  -6.0699  -3.1735  -2.7080  -0.3913
     6.5069  10.2020  12.4292  13.2437

          k =-0.0751-0.8806 0.5882 (   831 PWs)   bands (ev):

   -61.3019 -20.3720 -14.2414  -6.1986  -5.9392  -3.1023  -2.7041  -0.4807
     6.6210   8.8999  12.2731  14.0698

          k = 0.0662-0.7505-0.4011 (   832 PWs)   bands (ev):

   -61.3052 -20.4963 -14.1581  -6.2863  -5.4804  -2.8376  -2.3975  -0.9242
     5.2632   9.7363  11.7743  12.9512

          k = 0.0191-0.7938-0.0713 (   836 PWs)   bands (ev):

   -61.3072 -20.5093 -13.8428  -6.4233  -6.1457  -2.8999  -2.4110  -0.8758
     5.2998  11.3197  11.8912  13.1934

          k = 0.0777-0.5582 0.0738 (   834 PWs)   bands (ev):

   -61.2992 -20.4884 -13.9227  -6.4850  -6.0781  -2.9017  -2.4049  -0.1806
     5.1697   9.3572  13.2033  13.7096

          k = 0.0306-0.6016 0.4036 (   832 PWs)   bands (ev):

   -61.3040 -20.3777 -13.9292  -6.9653  -5.8875  -3.4019  -2.4865  -0.3088
     6.6170  10.5711  11.5221  13.6074

          k = 0.1719-0.4715-0.5857 (   836 PWs)   bands (ev):

   -61.3086 -20.5028 -13.8621  -6.4914  -6.1251  -2.9678  -2.4034  -0.7396
     5.4590  11.1293  11.7973  13.2270

          k =-0.5782 0.0004 0.5908 (   840 PWs)   bands (ev):

   -61.3110 -20.3985 -13.8589  -6.9084  -5.9614  -3.5046  -2.3902  -0.7006
     6.2064  10.6493  11.9451  13.4497

          k =-0.6253-0.0430 0.9206 (   832 PWs)   bands (ev):

   -61.3069 -20.3847 -14.1864  -6.3284  -5.8642  -3.1820  -2.6528  -0.6072
     6.4248   9.4380  11.7829  14.5481

          k =-0.4840 0.0872-0.0687 (   828 PWs)   bands (ev):

   -61.3044 -20.3721 -14.4795  -6.1977  -5.3079  -3.1512  -2.5719  -0.6683
     6.3687   8.8128  10.6967  15.8567

          k =-0.1834 0.2792 0.1108 (   829 PWs)   bands (ev):

   -61.3105 -20.4732 -14.2873  -6.2003  -5.4665  -2.9301  -2.4211  -0.3689
     5.0499   7.5265  13.5966  13.8326

          k =-0.1363 0.3226-0.2190 (   828 PWs)   bands (ev):

   -61.3083 -20.3552 -14.3059  -6.2005  -5.8333  -3.1827  -2.6916  -0.1982
     6.4351   7.9165  13.2148  14.6739

          k =-0.2776 0.1925 0.7703 (   842 PWs)   bands (ev):

   -61.3055 -20.3815 -13.9270  -6.7904  -6.0726  -3.1938  -2.7009  -0.4490
     6.7366  10.1228  12.3881  13.2059

          k =-0.2305 0.2358 0.4406 (   834 PWs)   bands (ev):

   -61.3007 -20.4903 -13.9149  -6.4067  -6.1055  -2.8730  -2.4682  -0.2957
     5.3159   9.2946  13.2189  13.5540

          k = 0.3668-0.5584-0.2216 (   822 PWs)   bands (ev):

   -61.2989 -20.6008 -13.8611  -6.7611  -5.5737  -2.3703  -2.2567  -0.2168
     4.1024  10.1399  10.6765  14.2635

          k = 0.4139-0.5150-0.5514 (   842 PWs)   bands (ev):

   -61.3069 -20.4975 -13.8807  -6.5961  -6.1245  -2.9623  -2.3601  -0.4034
     5.1657  10.1107  12.4343  13.6955

          k = 0.2726-0.6452 0.4380 (   840 PWs)   bands (ev):

   -61.3114 -20.3857 -13.8948  -6.9586  -6.0056  -3.4522  -2.4288  -0.4989
     6.4483  10.4639  12.2770  13.5094

          k = 0.2611-0.8374-0.0370 (   842 PWs)   bands (ev):

   -61.3066 -20.5039 -13.8630  -6.5513  -6.1391  -2.8931  -2.3864  -0.5554
     5.0748  10.1909  12.4901  13.7886

          k = 0.3082-0.7940-0.3667 (   831 PWs)   bands (ev):

   -61.3094 -20.4916 -14.1752  -6.4334  -5.4570  -2.8603  -2.4128  -0.6151
     5.1839   9.0502  12.1484  13.1987

          k = 0.1669-0.9242 0.6226 (   832 PWs)   bands (ev):

   -61.3070 -20.3789 -14.2044  -6.2846  -5.9797  -3.1213  -2.6661  -0.5746
     6.5993   9.2877  11.8334  14.5930

          k = 0.2140-0.8808 0.2928 (   836 PWs)   bands (ev):

   -61.2986 -20.3856 -13.8778  -6.7544  -6.2208  -3.1659  -2.6299  -0.2171
     6.4874  10.1720  13.0695  13.3648

          k = 0.1248-0.5148-0.2559 (   832 PWs)   bands (ev):

   -61.3095 -20.6126 -13.8544  -6.5999  -5.6106  -2.4265  -2.2581  -0.9955
     4.2435   9.8861  11.6421  13.3492

     the Fermi energy is    -0.4717 ev

!    total energy              =     -94.75258895 Ry
     estimated scf accuracy    <          9.7E-09 Ry
     smearing contrib. (-TS)   =      -0.00662913 Ry
     internal energy E=F+TS    =     -94.74595982 Ry

     The total energy is F=E-TS. E is the sum of the following terms:
     one-electron contribution =     -68.98389115 Ry
     hartree contribution      =      38.00874799 Ry
     xc contribution           =     -18.69725370 Ry
     ewald contribution        =     -25.99367777 Ry
     one-center paw contrib.   =     -19.07988519 Ry

     convergence has been achieved in   7 iterations

     Forces acting on atoms (cartesian axes, Ry/au):

     atom    1 type  1   force =     0.01283608    0.01034748    0.01167301
     atom    2 type  2   force =    -1.62051747   -1.35380379   -1.50366224
     atom    3 type  2   force =     1.60768139    1.34345631    1.49198923

     Total force =     3.651824     Total SCF correction =     0.000476


     Computing stress (Cartesian axis) and pressure

          total   stress  (Ry/bohr**3)                   (kbar)     P=     1116.85
   0.00904435   0.00826643   0.00925176         1330.47     1216.03     1360.98
   0.00826643   0.00602287   0.00764154         1216.03      885.99     1124.11
   0.00925176   0.00764154   0.00770927         1360.98     1124.11     1134.07

     Energy error            =      6.7E-01 Ry
     Gradient error          =      1.6E+00 Ry/Bohr
     Cell gradient error     =      1.4E+03 kbar

     number of scf cycles    =   4
     number of bfgs steps    =   3

     enthalpy           old  =     -94.0797134933 Ry
     enthalpy           new  =     -94.7525889523 Ry

     CASE: enthalpy          _new < enthalpy          _old

     new trust radius        =       0.3055275914 bohr
     new conv_thr            =       0.0000000100 Ry

     new unit-cell volume =    228.31334 a.u.^3 (    33.83255 Ang^3 )
     density =      0.14724 g/cm^3

CELL_PARAMETERS (angstrom)
   3.647651736  -0.958706037   0.519931963
   4.183437243   2.288425745   0.992540571
   3.636264717   0.951343284   3.479038219

ATOMIC_POSITIONS (angstrom)
Li               0.7681205976        0.6985952965        0.7393574266
O                0.0801414883        0.2985757359        0.1786153530
O                1.4222157843        1.0710900101        1.2689896946



     Writing config-only to output data dir ./tmp/pwscf.save/ :
     XML data file
     NEW-OLD atomic charge density approx. for the potential
     New effective cutoffs (rho, wfc):  399.79   50.31

     Check: negative core charge=   -0.000013

     total cpu time spent up to now is       19.4 secs

     Self-consistent Calculation

     iteration #  1     ecut=    40.00 Ry     beta= 0.70
     Davidson diagonalization with overlap
     c_bands:  1 eigenvalues not converged
     c_bands:  1 eigenvalues not converged
     c_bands:  1 eigenvalues not converged
     c_bands:  1 eigenvalues not converged
     c_bands:  1 eigenvalues not converged
     c_bands:  1 eigenvalues not converged
     c_bands:  1 eigenvalues not converged
     c_bands:  1 eigenvalues not converged
     ethr =  1.00E-06,  avg # of iterations = 14.8

     total cpu time spent up to now is       20.9 secs

     total energy              =     -95.60404007 Ry
     estimated scf accuracy    <       0.09864973 Ry

     iteration #  2     ecut=    40.00 Ry     beta= 0.70
     Davidson diagonalization with overlap
     ethr =  6.58E-04,  avg # of iterations =  1.9

     total cpu time spent up to now is       21.4 secs

     total energy              =     -95.60291657 Ry
     estimated scf accuracy    <       0.04537603 Ry

     iteration #  3     ecut=    40.00 Ry     beta= 0.70
     Davidson diagonalization with overlap
     ethr =  3.03E-04,  avg # of iterations =  2.0

     total cpu time spent up to now is       21.8 secs

     total energy              =     -95.60258238 Ry
     estimated scf accuracy    <       0.12834054 Ry

     iteration #  4     ecut=    40.00 Ry     beta= 0.70
     Davidson diagonalization with overlap
     ethr =  3.03E-04,  avg # of iterations =  1.2

     total cpu time spent up to now is       22.2 secs

     total energy              =     -95.62147626 Ry
     estimated scf accuracy    <       0.00164848 Ry

     iteration #  5     ecut=    40.00 Ry     beta= 0.70
     Davidson diagonalization with overlap
     ethr =  1.10E-05,  avg # of iterations =  2.1

     total cpu time spent up to now is       22.6 secs

     total energy              =     -95.62172770 Ry
     estimated scf accuracy    <       0.00004456 Ry

     iteration #  6     ecut=    40.00 Ry     beta= 0.70
     Davidson diagonalization with overlap
     ethr =  2.97E-07,  avg # of iterations =  2.9

     total cpu time spent up to now is       23.1 secs

     total energy              =     -95.62173819 Ry
     estimated scf accuracy    <       0.00000165 Ry

     iteration #  7     ecut=    40.00 Ry     beta= 0.70
     Davidson diagonalization with overlap
     ethr =  1.10E-08,  avg # of iterations =  2.0

     total cpu time spent up to now is       23.6 secs

     total energy              =     -95.62173855 Ry
     estimated scf accuracy    <       0.00000011 Ry

     iteration #  8     ecut=    40.00 Ry     beta= 0.70
     Davidson diagonalization with overlap
     ethr =  7.23E-10,  avg # of iterations =  2.0

     total cpu time spent up to now is       24.0 secs

     End of self-consistent calculation

          k = 0.0000 0.0000 0.0000 (   829 PWs)   bands (ev):

   -53.7705 -18.2046 -14.5559  -3.2295  -2.8708  -2.4773  -1.2021  -1.0334
     5.0905   7.7469  12.7464  16.7968

          k =-0.0600-0.0405 0.3462 (   829 PWs)   bands (ev):

   -53.7592 -18.2567 -14.1001  -4.2274  -3.2821  -2.0845  -1.5738  -1.1532
     5.3413   9.4033  13.5569  15.5609

          k = 0.1200 0.0810-0.6924 (   822 PWs)   bands (ev):

   -53.7560 -18.2974 -13.6018  -5.2754  -3.3888  -2.3871  -1.4283  -1.1709
     5.5561  12.5370  12.6055  13.7259

          k = 0.1073 0.3026-0.1949 (   829 PWs)   bands (ev):

   -53.7595 -18.2140 -14.1437  -4.2378  -3.3707  -2.2898  -1.4186  -1.0966
     5.2777   9.6106  13.6185  15.7200

          k = 0.0473 0.2621 0.1513 (   828 PWs)   bands (ev):

   -53.7644 -18.4548 -14.0511  -4.0955  -3.1659  -1.7496  -1.4939  -0.9960
     4.7497   9.0119  13.4645  15.5313

          k = 0.2273 0.3835-0.8873 (   842 PWs)   bands (ev):

   -53.7667 -18.4872 -13.5755  -4.5343  -4.0854  -1.7782  -1.4923  -1.1161
     4.9112  11.0456  13.5940  15.2764

          k = 0.1673 0.3431-0.5411 (   834 PWs)   bands (ev):

   -53.7658 -18.2571 -13.6465  -5.1517  -3.8618  -2.0239  -1.6779  -1.1613
     5.4464  12.3315  13.4321  14.4916

          k =-0.2146-0.6051 0.3898 (   822 PWs)   bands (ev):

   -53.7468 -18.2183 -13.6699  -5.4224  -3.4135  -2.4588  -1.4770  -1.1616
     5.6074  12.8509  12.9313  13.8468

          k =-0.2746-0.6456 0.7360 (   842 PWs)   bands (ev):

   -53.7650 -18.4507 -13.6099  -4.6623  -4.0343  -1.8870  -1.4512  -1.1046
     4.9518  11.3580  13.2848  15.3576

          k =-0.0946-0.5241-0.3027 (   840 PWs)   bands (ev):

   -53.7785 -18.6658 -13.5564  -4.7442  -3.3753  -1.7950  -1.4761  -0.8453
     4.3406  11.4060  12.2510  14.9456

          k = 0.3039-0.0041-0.3165 (   828 PWs)   bands (ev):

   -53.7694 -18.2968 -14.0244  -4.2711  -3.4103  -2.0912  -1.6009  -0.9588
     4.8843  10.1655  13.2233  15.5310

          k = 0.2439-0.0446 0.0297 (   814 PWs)   bands (ev):

   -53.7627 -18.2872 -14.3747  -3.7344  -2.8559  -2.2017  -1.2678  -1.1661
     5.4514   8.6016  12.5919  16.1702

          k = 0.4239 0.0769-1.0090 (   831 PWs)   bands (ev):

   -53.7614 -18.3377 -13.9018  -4.3784  -3.5770  -2.0199  -1.4549  -1.3309
     5.6412  10.0721  13.4096  15.1736

          k = 0.3639 0.0364-0.6627 (   832 PWs)   bands (ev):

   -53.7563 -18.3398 -13.5016  -5.2678  -3.6041  -2.4597  -1.3765  -1.0039
     5.1891  12.4903  12.7654  14.1863

          k =-0.0180-0.9118 0.2681 (   842 PWs)   bands (ev):

   -53.7619 -18.2997 -13.5503  -5.0913  -4.0953  -2.0354  -1.5964  -1.0546
     5.1148  12.3914  13.4787  14.6333

          k =-0.0780-0.9523 0.6144 (   831 PWs)   bands (ev):

   -53.7594 -18.2912 -13.9550  -4.2803  -3.8261  -2.0536  -1.5049  -1.2214
     5.6705  10.3978  13.4153  15.2130

          k = 0.1020-0.8308-0.4243 (   832 PWs)   bands (ev):

   -53.7680 -18.5287 -13.8450  -4.5348  -3.1588  -1.9709  -1.2746  -0.9865
     4.9674  10.1959  13.3992  14.3919

          k = 0.0420-0.8713-0.0781 (   836 PWs)   bands (ev):

   -53.7625 -18.5321 -13.4540  -4.7175  -4.1628  -1.8851  -1.3629  -0.9500
     4.6042  11.9824  13.7008  15.0584

          k = 0.0893-0.6092 0.0733 (   834 PWs)   bands (ev):

   -53.7480 -18.4575 -13.6128  -4.7288  -4.0463  -1.7919  -1.2272  -0.9067
     4.2599  11.5479  13.9404  15.5730

          k = 0.0293-0.6497 0.4195 (   832 PWs)   bands (ev):

   -53.7577 -18.2525 -13.5982  -5.3516  -3.6823  -2.4548  -1.4579  -1.0884
     5.3779  12.6320  13.2268  14.2821

          k = 0.2093-0.5282-0.6192 (   836 PWs)   bands (ev):

   -53.7672 -18.4842 -13.5167  -4.7822  -4.2114  -2.0136  -1.1929  -1.0705
     4.8850  12.2085  13.5857  14.9780

          k =-0.6078 0.0082 0.6330 (   840 PWs)   bands (ev):

   -53.7803 -18.3810 -13.4097  -5.3074  -3.7454  -2.5310  -1.3386  -0.9243
     4.6880  12.3058  12.7188  15.0213

          k =-0.6678-0.0323 0.9793 (   832 PWs)   bands (ev):

   -53.7678 -18.3756 -13.8240  -4.4997  -3.5951  -2.0759  -1.5057  -1.1386
     5.2184  11.3723  12.2616  15.6979

          k =-0.4878 0.0891-0.0594 (   828 PWs)   bands (ev):

   -53.7727 -18.3647 -14.1986  -4.1267  -2.8659  -2.0652  -1.4900  -1.1814
     5.5275  10.6466  10.9116  16.7290

          k =-0.1966 0.3066 0.1216 (   829 PWs)   bands (ev):

   -53.7715 -18.4567 -14.0715  -4.2530  -3.1073  -1.8186  -1.1356  -0.9046
     4.0217   9.5450  13.7554  15.8347

          k =-0.1366 0.3471-0.2246 (   828 PWs)   bands (ev):

   -53.7684 -18.2503 -14.0737  -4.2107  -3.6079  -2.1693  -1.4378  -1.0907
     5.0901  10.0795  13.4629  16.2028

          k =-0.3166 0.2257 0.8141 (   842 PWs)   bands (ev):

   -53.7642 -18.2918 -13.5641  -5.0807  -4.1653  -2.0249  -1.3721  -1.2875
     5.3145  12.1933  13.8652  14.5213

          k =-0.2566 0.2661 0.4679 (   834 PWs)   bands (ev):

   -53.7535 -18.4910 -13.5847  -4.6937  -4.0788  -1.6409  -1.1228  -1.0114
     4.2414  11.4603  14.0610  15.5357

          k = 0.3932-0.6133-0.2433 (   822 PWs)   bands (ev):

   -53.7434 -18.6835 -13.5151  -5.3036  -3.2630  -1.0864  -0.9808  -0.7004
     3.2855  12.5752  12.7966  14.8817

          k = 0.4532-0.5728-0.5895 (   842 PWs)   bands (ev):

   -53.7628 -18.4916 -13.5235  -4.9277  -4.1261  -1.8628  -1.1596  -0.8365
     4.1521  12.4832  13.8976  14.8350

          k = 0.2732-0.6943 0.4492 (   840 PWs)   bands (ev):

   -53.7787 -18.2863 -13.5310  -5.3117  -3.8747  -2.5069  -1.2672  -1.2245
     5.0912  12.3592  13.2192  15.3934

          k = 0.2859-0.9158-0.0484 (   842 PWs)   bands (ev):

   -53.7654 -18.5359 -13.4674  -4.9261  -4.0839  -1.6777  -1.2443  -0.7836
     3.8543  12.5690  13.6799  15.0168

          k = 0.3459-0.8753-0.3946 (   831 PWs)   bands (ev):

   -53.7715 -18.5315 -13.8664  -4.6682  -3.0941  -1.9047  -1.0954  -0.9033
     4.3267  11.3299  12.3387  15.5044

          k = 0.1659-0.9968 0.6441 (   832 PWs)   bands (ev):

   -53.7693 -18.3256 -13.8848  -4.3426  -3.9013  -2.0643  -1.3993  -1.2997
     5.4407  11.2656  12.5452  16.3315

          k = 0.2259-0.9563 0.2978 (   836 PWs)   bands (ev):

   -53.7453 -18.3331 -13.4610  -5.0077  -4.3761  -2.0599  -1.3799  -1.0180
     5.0962  12.0539  13.6859  15.2825

          k = 0.1493-0.5687-0.2730 (   832 PWs)   bands (ev):

   -53.7725 -18.6747 -13.5401  -5.0382  -3.3274  -1.5646  -1.0615  -0.8941
     3.7997  11.5466  13.1666  14.5825

     the Fermi energy is    -1.0005 ev

!    total energy              =     -95.62173857 Ry
     estimated scf accuracy    <          5.0E-09 Ry
     smearing contrib. (-TS)   =      -0.01209908 Ry
     internal energy E=F+TS    =     -95.60963949 Ry

     The total energy is F=E-TS. E is the sum of the following terms:
     one-electron contribution =     -53.74937041 Ry
     hartree contribution      =      31.41007596 Ry
     xc contribution           =     -18.44823086 Ry
     ewald contribution        =     -35.71914810 Ry
     one-center paw contrib.   =     -19.10296607 Ry

     convergence has been achieved in   8 iterations

     Forces acting on atoms (cartesian axes, Ry/au):

     atom    1 type  1   force =    -0.21491508   -0.10209032   -0.16770147
     atom    2 type  2   force =    -1.25013531   -0.73347886   -1.02334062
     atom    3 type  2   force =     1.46505039    0.83556917    1.19104209

     Total force =     2.737868     Total SCF correction =     0.000212


     Computing stress (Cartesian axis) and pressure

          total   stress  (Ry/bohr**3)                   (kbar)     P=     1158.22
   0.01246600   0.00704614   0.01045744         1833.81     1036.52     1538.34
   0.00704614   0.00329522   0.00558240         1036.52      484.74      821.20
   0.01045744   0.00558240   0.00785902         1538.34      821.20     1156.10

     Energy error            =      8.7E-01 Ry
     Gradient error          =      1.5E+00 Ry/Bohr
     Cell gradient error     =      1.8E+03 kbar

     number of scf cycles    =   5
     number of bfgs steps    =   4

     enthalpy           old  =     -94.7525889523 Ry
     enthalpy           new  =     -95.6217385701 Ry

     CASE: enthalpy          _new < enthalpy          _old

     new trust radius        =       0.4608514678 bohr
     new conv_thr            =       0.0000000100 Ry

     new unit-cell volume =    179.80586 a.u.^3 (    26.64448 Ang^3 )
     density =      0.18697 g/cm^3

CELL_PARAMETERS (angstrom)
   3.659978838  -0.685899533   0.756613838
   4.150585057   2.104096004   1.109177017
   3.729916617   0.924128947   3.438579813

ATOMIC_POSITIONS (angstrom)
Li               0.7706987824        0.6179153869        0.7060307565
O               -0.1307733767        0.2969938068        0.0583684365
O                1.6623682665        0.9211147132        1.3408428016



     Writing config-only to output data dir ./tmp/pwscf.save/ :
     XML data file
     NEW-OLD atomic charge density approx. for the potential
     New effective cutoffs (rho, wfc):  516.49   64.70

     Check: negative core charge=   -0.000012

     total cpu time spent up to now is       24.4 secs

     Self-consistent Calculation

     iteration #  1     ecut=    40.00 Ry     beta= 0.70
     Davidson diagonalization with overlap
     c_bands:  1 eigenvalues not converged
     c_bands:  1 eigenvalues not converged
     c_bands:  1 eigenvalues not converged
     c_bands:  1 eigenvalues not converged
     ethr =  1.00E-06,  avg # of iterations = 15.6

     total cpu time spent up to now is       26.1 secs

     total energy              =     -96.56718705 Ry
     estimated scf accuracy    <       0.11265959 Ry

     iteration #  2     ecut=    40.00 Ry     beta= 0.70
     Davidson diagonalization with overlap
     ethr =  7.51E-04,  avg # of iterations =  2.0

     total cpu time spent up to now is       26.6 secs

     total energy              =     -96.46160408 Ry
     estimated scf accuracy    <       1.15890235 Ry

     iteration #  3     ecut=    40.00 Ry     beta= 0.70
     Davidson diagonalization with overlap
     ethr =  7.51E-04,  avg # of iterations =  2.0

     total cpu time spent up to now is       27.0 secs

     total energy              =     -96.57632829 Ry
     estimated scf accuracy    <       0.26317301 Ry

     iteration #  4     ecut=    40.00 Ry     beta= 0.70
     Davidson diagonalization with overlap
     ethr =  7.51E-04,  avg # of iterations =  1.0

     total cpu time spent up to now is       27.4 secs

     total energy              =     -96.59727602 Ry
     estimated scf accuracy    <       0.01419777 Ry

     iteration #  5     ecut=    40.00 Ry     beta= 0.70
     Davidson diagonalization with overlap
     ethr =  9.47E-05,  avg # of iterations =  1.0

     total cpu time spent up to now is       27.8 secs

     total energy              =     -96.59826015 Ry
     estimated scf accuracy    <       0.00031674 Ry

     iteration #  6     ecut=    40.00 Ry     beta= 0.70
     Davidson diagonalization with overlap
     ethr =  2.11E-06,  avg # of iterations =  2.8

     total cpu time spent up to now is       28.2 secs

     total energy              =     -96.59830831 Ry
     estimated scf accuracy    <       0.00017017 Ry

     iteration #  7     ecut=    40.00 Ry     beta= 0.70
     Davidson diagonalization with overlap
     ethr =  1.13E-06,  avg # of iterations =  1.0

     total cpu time spent up to now is       28.6 secs

     total energy              =     -96.59832244 Ry
     estimated scf accuracy    <       0.00000213 Ry

     iteration #  8     ecut=    40.00 Ry     beta= 0.70
     Davidson diagonalization with overlap
     ethr =  1.42E-08,  avg # of iterations =  3.1

     total cpu time spent up to now is       29.1 secs

     total energy              =     -96.59832328 Ry
     estimated scf accuracy    <       0.00000033 Ry

     iteration #  9     ecut=    40.00 Ry     beta= 0.70
     Davidson diagonalization with overlap
     ethr =  2.19E-09,  avg # of iterations =  1.6

     total cpu time spent up to now is       29.6 secs

     End of self-consistent calculation

          k = 0.0000 0.0000 0.0000 (   829 PWs)   bands (ev):

   -44.2852 -15.1462 -14.6510  -1.3084   0.7051   1.4545   1.6295   1.8503
     3.0579  11.6715  14.0593  20.3805

          k =-0.0837-0.0327 0.3752 (   829 PWs)   bands (ev):

   -44.2616 -15.2832 -13.9436  -1.3259  -0.2506   0.5246   0.9031   1.6219
     3.1799  13.7119  15.5510  18.1535

          k = 0.1674 0.0654-0.7505 (   822 PWs)   bands (ev):

   -44.2422 -15.2754 -13.3048  -2.6351  -0.2880   0.4152   0.4737   0.9040
     3.4426  15.0630  16.8652  16.9918

          k = 0.1088 0.3473-0.2113 (   829 PWs)   bands (ev):

   -44.2569 -15.0257 -14.0350  -1.3210  -0.6864   0.3820   0.7184   1.7555
     3.1265  14.1608  15.2344  17.8077

          k = 0.0251 0.3146 0.1639 (   828 PWs)   bands (ev):

   -44.2708 -15.5878 -13.8611  -1.3572  -0.4877   0.8859   1.1395   1.7096
     3.1759  13.3538  15.8817  19.0836

          k = 0.2762 0.4127-0.9618 (   842 PWs)   bands (ev):

   -44.2501 -15.5479 -13.2791  -1.5727  -0.9280  -0.1456   0.6346   1.1511
     3.2781  15.1094  16.6203  18.8912

          k = 0.1925 0.3800-0.5866 (   834 PWs)   bands (ev):

   -44.2385 -15.0716 -13.3290  -2.4187  -1.0347   0.1217   0.3516   1.1910
     3.3976  15.4617  16.3650  17.6853

          k =-0.2176-0.6946 0.4227 (   822 PWs)   bands (ev):

   -44.2288 -14.8557 -13.3431  -2.8924  -0.9415   0.1505   0.2525   1.2730
     3.4140  14.2929  16.2533  16.9032

          k =-0.3012-0.7273 0.7979 (   842 PWs)   bands (ev):

   -44.2450 -15.3721 -13.2728  -1.9302  -1.1886  -0.1850   0.8053   1.1061
     3.3187  15.3023  16.4876  17.7860

          k =-0.0502-0.6292-0.3278 (   840 PWs)   bands (ev):

   -44.2587 -15.7825 -13.2749  -2.1035  -0.3612  -0.2143   0.6080   1.7127
     3.4039  15.3260  16.4824  19.2768

          k = 0.3297-0.0132-0.3541 (   828 PWs)   bands (ev):

   -44.2639 -15.4908 -13.7332  -0.9778  -0.1967   0.6094   0.9594   1.0427
     2.8991  14.3545  15.2857  18.1298

          k = 0.2460-0.0459 0.0212 (   814 PWs)   bands (ev):

   -44.2827 -15.6811 -14.0352  -1.3250   0.3788   1.4304   1.4947   1.6662
     3.5305  12.3345  14.2464  19.6996

          k = 0.4971 0.0522-1.1045 (   831 PWs)   bands (ev):

   -44.2639 -15.7371 -13.3075  -1.9652  -0.7532   0.6136   0.8462   2.1241
     3.6764  13.7129  15.9168  17.6591

          k = 0.4134 0.0195-0.7293 (   832 PWs)   bands (ev):

   -44.2395 -15.5420 -12.9170  -2.6130  -0.8556  -0.0771   0.7215   1.7649
     3.2553  14.5929  16.6338  17.4967

          k = 0.0034-1.0552 0.2799 (   842 PWs)   bands (ev):

   -44.2371 -15.3277 -13.0018  -2.1540  -1.1249  -0.2007   0.3194   1.2414
     3.1909  15.0737  16.5372  17.8099

          k =-0.0803-1.0879 0.6552 (   831 PWs)   bands (ev):

   -44.2582 -15.4755 -13.4657  -1.5352  -1.0169   0.3155   0.6695   1.7405
     3.6878  14.4537  15.5424  17.7897

          k = 0.1708-0.9898-0.4705 (   832 PWs)   bands (ev):

   -44.2705 -15.9711 -13.2716  -2.3536  -0.8799   1.0378   1.5207   2.1125
     3.6100  13.6856  16.2795  18.4561

          k = 0.0871-1.0225-0.0953 (   836 PWs)   bands (ev):

   -44.2467 -15.8231 -12.8346  -2.0599  -0.7909  -0.6489   0.7675   1.7917
     3.2276  15.1281  17.0007  18.1698

          k = 0.1121-0.7078 0.0686 (   834 PWs)   bands (ev):

   -44.2383 -15.4716 -13.1816  -1.8212  -0.4898  -0.0512   0.5742   0.9236
     2.6146  15.5154  16.8122  17.3989

          k = 0.0284-0.7405 0.4438 (   832 PWs)   bands (ev):

   -44.2314 -15.1036 -13.0422  -2.6826  -0.7432  -0.4946   0.2841   1.1510
     3.3952  14.3919  16.1848  17.4293

          k = 0.2795-0.6425-0.6819 (   836 PWs)   bands (ev):

   -44.2442 -15.6046 -12.9101  -2.3062  -1.4866  -0.5359   0.8721   1.8644
     3.4974  15.5517  16.8026  18.0000

          k =-0.6594 0.0265 0.7081 (   840 PWs)   bands (ev):

   -44.2468 -15.7541 -12.5898  -2.7908  -0.9681  -0.2810   0.6105   1.9396
     3.2835  14.2020  16.3124  18.0715

          k =-0.7431-0.0062 1.0834 (   832 PWs)   bands (ev):

   -44.2638 -15.8639 -13.1705  -1.8824  -0.3630   0.5752   0.7947   1.6995
     3.4587  14.3665  15.4383  18.1726

          k =-0.4920 0.0919-0.0423 (   828 PWs)   bands (ev):

   -44.2872 -15.9606 -13.6823  -1.5245   0.5290   0.8711   1.5470   1.6135
     3.7780  13.4452  13.9833  19.5213

          k =-0.2209 0.3605 0.1427 (   829 PWs)   bands (ev):

   -44.2698 -15.6194 -13.8911  -0.8495   0.1958   0.7019   0.9511   1.3993
     2.5236  14.0647  15.8712  18.1172

          k =-0.1372 0.3932-0.2325 (   828 PWs)   bands (ev):

   -44.2597 -15.3036 -13.7351  -0.9754  -0.7859   0.4778   0.7621   1.1358
     3.1389  14.4634  15.2386  17.8629

          k =-0.3883 0.2951 0.8932 (   842 PWs)   bands (ev):

   -44.2388 -15.3381 -12.9587  -2.2877  -1.6633  -0.0737   0.3263   1.8145
     3.3047  15.3287  16.6433  17.3648

          k =-0.3046 0.3278 0.5180 (   834 PWs)   bands (ev):

   -44.2456 -15.6415 -13.1772  -1.8899  -0.7630   0.0961   0.9714   1.4756
     2.5080  15.7644  16.5461  18.4517

          k = 0.4418-0.7211-0.2855 (   822 PWs)   bands (ev):

   -44.2459 -16.0340 -12.8839  -3.1254   0.0336   0.5982   1.0067   1.9555
     2.8694  16.2024  16.3863  18.1211

          k = 0.5255-0.6884-0.6607 (   842 PWs)   bands (ev):

   -44.2420 -15.6867 -12.8416  -2.3862  -0.7362  -0.1134   0.4054   1.4462
     3.0163  15.7486  17.1227  17.8167

          k = 0.2744-0.7865 0.4650 (   840 PWs)   bands (ev):

   -44.2383 -15.2967 -12.8014  -2.4775  -0.8749  -0.5370   0.1595   0.7614
     3.4121  14.3893  16.7488  17.2072

          k = 0.3331-1.0684-0.0741 (   842 PWs)   bands (ev):

   -44.2473 -15.8987 -12.7552  -2.4866  -0.5347   0.2685   0.5302   1.4436
     2.8923  15.6647  17.3223  17.5127

          k = 0.4168-1.0357-0.4494 (   831 PWs)   bands (ev):

   -44.2696 -15.9998 -13.3089  -2.0985  -0.3783   1.1937   1.2911   1.8143
     3.0748  14.8118  15.6392  18.1296

          k = 0.1657-1.1338 0.6763 (   832 PWs)   bands (ev):

   -44.2601 -15.6363 -13.2796  -1.5430  -0.7634   0.5692   0.6146   1.1032
     3.6199  14.8505  15.3174  18.6827

          k = 0.2494-1.1011 0.3011 (   836 PWs)   bands (ev):

   -44.2316 -15.5326 -12.6804  -2.0335  -1.7742  -0.1152   0.4074   1.6171
     3.1892  15.0037  16.7022  17.5898

          k = 0.1958-0.6752-0.3066 (   832 PWs)   bands (ev):

   -44.2563 -15.9166 -13.0783  -2.5587  -0.8512   0.7489   0.9150   1.8469
     2.9954  15.5504  16.7033  18.2823

     the Fermi energy is     1.6090 ev

!    total energy              =     -96.59832331 Ry
     estimated scf accuracy    <          7.5E-09 Ry
     smearing contrib. (-TS)   =      -0.00654501 Ry
     internal energy E=F+TS    =     -96.59177831 Ry

     The total energy is F=E-TS. E is the sum of the following terms:
     one-electron contribution =     -31.08319901 Ry
     hartree contribution      =      21.67614019 Ry
     xc contribution           =     -18.15988995 Ry
     ewald contribution        =     -49.90925800 Ry
     one-center paw contrib.   =     -19.11557154 Ry

     convergence has been achieved in   9 iterations

     Forces acting on atoms (cartesian axes, Ry/au):

     atom    1 type  1   force =    -0.06629233   -0.01551836   -0.04465682
     atom    2 type  2   force =    -0.63733190   -0.19809561   -0.45110691
     atom    3 type  2   force =     0.70362423    0.21361397    0.49576372

     Total force =     1.200858     Total SCF correction =     0.000159


     Computing stress (Cartesian axis) and pressure

          total   stress  (Ry/bohr**3)                   (kbar)     P=      548.20
   0.00765103   0.00215256   0.00559284         1125.51      316.65      822.73
   0.00215256  -0.00001489   0.00117576          316.65       -2.19      172.96
   0.00559284   0.00117576   0.00354356          822.73      172.96      521.28

     Energy error            =      9.8E-01 Ry
     Gradient error          =      7.0E-01 Ry/Bohr
     Cell gradient error     =      1.1E+03 kbar

     number of scf cycles    =   6
     number of bfgs steps    =   5

     enthalpy           old  =     -95.6217385701 Ry
     enthalpy           new  =     -96.5983233148 Ry

     CASE: enthalpy          _new < enthalpy          _old

     new trust radius        =       0.7100188580 bohr
     new conv_thr            =       0.0000000100 Ry

     new unit-cell volume =    133.93796 a.u.^3 (    19.84756 Ang^3 )
     density =      0.25099 g/cm^3

CELL_PARAMETERS (angstrom)
   3.782828932  -0.481494672   1.049885216
   4.083766691   1.782400318   1.150476163
   3.831207048   0.732586102   3.351375210

ATOMIC_POSITIONS (angstrom)
Li               0.8379861469        0.5462373409        0.7144591523
O               -0.4969035095        0.2663183592       -0.1731654829
O                1.9285541730        0.6666163458        1.3934112588



     Writing config-only to output data dir ./tmp/pwscf.save/ :
     XML data file
     NEW-OLD atomic charge density approx. for the potential
     New effective cutoffs (rho, wfc):  724.82   90.04

     Check: negative core charge=   -0.000012

     total cpu time spent up to now is       29.9 secs

     Self-consistent Calculation

     iteration #  1     ecut=    40.00 Ry     beta= 0.70
     Davidson diagonalization with overlap
     c_bands:  1 eigenvalues not converged
     c_bands:  1 eigenvalues not converged
     c_bands:  1 eigenvalues not converged
     c_bands:  1 eigenvalues not converged
     c_bands:  1 eigenvalues not converged
     ethr =  1.00E-06,  avg # of iterations = 15.8

     total cpu time spent up to now is       31.7 secs

     total energy              =     -97.06263196 Ry
     estimated scf accuracy    <       0.17517885 Ry

     iteration #  2     ecut=    40.00 Ry     beta= 0.70
     Davidson diagonalization with overlap
     ethr =  1.17E-03,  avg # of iterations =  2.1

     total cpu time spent up to now is       32.2 secs

     total energy              =     -96.95359675 Ry
     estimated scf accuracy    <       1.45448064 Ry

     iteration #  3     ecut=    40.00 Ry     beta= 0.70
     Davidson diagonalization with overlap
     ethr =  1.17E-03,  avg # of iterations =  2.0

     total cpu time spent up to now is       32.6 secs

     total energy              =     -97.10863006 Ry
     estimated scf accuracy    <       0.25555921 Ry

     iteration #  4     ecut=    40.00 Ry     beta= 0.70
     Davidson diagonalization with overlap
     ethr =  1.17E-03,  avg # of iterations =  1.0

     total cpu time spent up to now is       33.0 secs

     total energy              =     -97.13250209 Ry
     estimated scf accuracy    <       0.01932472 Ry

     iteration #  5     ecut=    40.00 Ry     beta= 0.70
     Davidson diagonalization with overlap
     ethr =  1.29E-04,  avg # of iterations =  1.0

     total cpu time spent up to now is       33.4 secs

     total energy              =     -97.13463672 Ry
     estimated scf accuracy    <       0.00404069 Ry

     iteration #  6     ecut=    40.00 Ry     beta= 0.70
     Davidson diagonalization with overlap
     ethr =  2.69E-05,  avg # of iterations =  1.1

     total cpu time spent up to now is       33.8 secs
[...]

   -40.5369 -19.7575 -11.1141  -3.6286  -2.7493  -1.4900   1.8498   2.7088
     9.0007  13.2062  14.8992  16.8183

          k =-0.0685-0.5459-0.7379 (   836 PWs)   bands (ev):

   -40.5372 -19.6389 -11.5801  -3.6054  -2.4017  -1.9197   2.6463   2.8702
     8.7244  13.1346  14.6214  17.3898

          k =-0.5409-0.0158 0.5882 (   840 PWs)   bands (ev):

   -40.5362 -19.4524 -12.0645  -2.7024  -2.5064  -2.1159   1.7779   3.5523
     8.6437  11.6802  15.1706  18.3765

          k =-0.5114-0.0076 0.9656 (   832 PWs)   bands (ev):

   -40.5410 -19.6019 -11.7860  -3.2784  -2.0846  -1.6923   2.2594   3.0038
     8.1550  12.2837  15.1880  17.9068

          k =-0.5998-0.0323-0.1666 (   828 PWs)   bands (ev):

   -40.5457 -19.7388 -11.5584  -3.0794  -1.8750  -1.6599   2.0252   2.9925
     7.9916  12.7141  14.0636  17.8823

          k =-0.1304 0.2608 0.1386 (   829 PWs)   bands (ev):

   -40.5482 -19.7533 -11.5171  -3.3502  -1.6687  -1.3840   2.3022   2.9123
     8.5908  11.3423  15.3179  16.5986

          k =-0.1599 0.2526-0.2388 (   828 PWs)   bands (ev):

   -40.5446 -19.8085 -11.0611  -3.7864  -2.0283  -1.2790   1.6402   2.6497
     9.2058  11.6217  15.9194  16.2176

          k =-0.0715 0.2772 0.8934 (   842 PWs)   bands (ev):

   -40.5364 -19.6041 -11.4119  -3.8950  -2.4799  -1.7312   2.0634   2.6661
     9.0625  13.0417  14.8132  17.5447

          k =-0.1010 0.2690 0.5160 (   834 PWs)   bands (ev):

   -40.5401 -19.5424 -11.8683  -3.0598  -2.5715  -1.7837   2.1753   3.3963
     8.8221  12.1937  14.7893  17.0852

          k = 0.2608-0.5216-0.2772 (   822 PWs)   bands (ev):

   -40.5435 -19.5699 -12.2311  -2.4703  -2.0982  -1.3818   2.5387   3.3823
     8.0822  11.7548  14.1513  15.7429

          k = 0.2314-0.5298-0.6546 (   842 PWs)   bands (ev):

   -40.5398 -19.6340 -11.8069  -3.0034  -2.2415  -1.6259   2.3969   2.9590
     8.2708  13.0561  13.4035  16.5652

          k = 0.3197-0.5051 0.4776 (   840 PWs)   bands (ev):

   -40.5362 -19.6932 -11.3735  -3.1486  -2.7754  -1.5933   1.8038   2.5678
     8.5529  12.9291  15.8196  16.3287

          k = 0.1208-0.7903-0.1217 (   842 PWs)   bands (ev):

   -40.5400 -19.5118 -12.1497  -2.6250  -2.2400  -1.8365   2.2767   3.3835
     8.3602  11.3864  15.3684  16.8305

          k = 0.0914-0.7985-0.4991 (   831 PWs)   bands (ev):

   -40.5447 -19.6591 -11.8750  -2.9887  -1.9180  -1.4866   2.5805   3.0806
     7.8373  11.7987  14.0708  17.2226

          k = 0.1797-0.7738 0.6331 (   832 PWs)   bands (ev):

   -40.5410 -19.7161 -11.4684  -3.1312  -2.2446  -1.7366   1.9259   2.7968
     8.2822  12.9922  14.9959  16.4056

          k = 0.1503-0.7821 0.2557 (   836 PWs)   bands (ev):

   -40.5363 -19.5759 -11.7182  -3.3028  -2.6255  -1.5806   2.1647   2.8748
     8.5518  13.0503  14.4222  16.6534

          k =-0.0390-0.5377-0.3605 (   832 PWs)   bands (ev):

   -40.5408 -19.5824 -11.9756  -3.0938  -2.7001  -1.4212   2.7226   3.5241
     8.9955  12.4592  13.2940  16.7943

     the Fermi energy is     2.9580 ev

!    total energy              =     -97.66511881 Ry
     estimated scf accuracy    <          8.1E-11 Ry
     smearing contrib. (-TS)   =      -0.00699959 Ry
     internal energy E=F+TS    =     -97.65811923 Ry

     The total energy is F=E-TS. E is the sum of the following terms:
     one-electron contribution =     -34.50477961 Ry
     hartree contribution      =      23.22621769 Ry
     xc contribution           =     -18.14229043 Ry
     ewald contribution        =     -49.16291611 Ry
     one-center paw contrib.   =     -19.07435076 Ry

     convergence has been achieved in   8 iterations

     Forces acting on atoms (cartesian axes, Ry/au):

     atom    1 type  1   force =    -0.00118365    0.00603678    0.00648609
     atom    2 type  2   force =    -0.04269110    0.01863419    0.02235819
     atom    3 type  2   force =     0.04387475   -0.02467097   -0.02884428

     Total force =     0.078200     Total SCF correction =     0.000010


     Computing stress (Cartesian axis) and pressure

          total   stress  (Ry/bohr**3)                   (kbar)     P=      -22.74
  -0.00025156   0.00019038   0.00029568          -37.01       28.01       43.50
   0.00019038  -0.00017556  -0.00004631           28.01      -25.83       -6.81
   0.00029568  -0.00004631  -0.00003664           43.50       -6.81       -5.39

     Energy error            =      5.0E-04 Ry
     Gradient error          =      4.4E-02 Ry/Bohr
     Cell gradient error     =      4.3E+01 kbar

     number of scf cycles    =  49
     number of bfgs steps    =  45

     enthalpy           old  =     -97.6656147104 Ry
     enthalpy           new  =     -97.6651188128 Ry

     CASE: enthalpy          _new > enthalpy          _old

     new trust radius        =       0.0383823644 bohr
     new conv_thr            =       0.0000000004 Ry

     new unit-cell volume =    197.09188 a.u.^3 (    29.20600 Ang^3 )
     density =      0.17057 g/cm^3

CELL_PARAMETERS (angstrom)
   3.305907142  -1.816526536  -0.182741716
   3.149964118   1.750560342  -0.238457809
   2.530272306   0.079733562   2.370592625

ATOMIC_POSITIONS (angstrom)
Li               0.9184448879        1.3239684448        0.6161221775
O               -0.9102172473        0.8458209619        0.1275787162
O                1.3158050923       -0.4362906152        0.5758851809



     Writing config-only to output data dir ./tmp/pwscf.save/ :
     XML data file
     NEW-OLD atomic charge density approx. for the potential
     New effective cutoffs (rho, wfc):  383.52   47.92

     Check: negative core charge=   -0.000006

     total cpu time spent up to now is      221.9 secs

     Self-consistent Calculation

     iteration #  1     ecut=    40.00 Ry     beta= 0.70
     Davidson diagonalization with overlap
     ethr =  1.00E-06,  avg # of iterations =  9.5

     total cpu time spent up to now is      223.0 secs

     total energy              =     -97.66498912 Ry
     estimated scf accuracy    <       0.00238984 Ry

     iteration #  2     ecut=    40.00 Ry     beta= 0.70
     Davidson diagonalization with overlap
     ethr =  1.59E-05,  avg # of iterations =  2.0

     total cpu time spent up to now is      223.5 secs

     total energy              =     -97.66513041 Ry
     estimated scf accuracy    <       0.00210698 Ry

     iteration #  3     ecut=    40.00 Ry     beta= 0.70
     Davidson diagonalization with overlap
     ethr =  1.40E-05,  avg # of iterations =  1.9

     total cpu time spent up to now is      223.9 secs

     total energy              =     -97.66552277 Ry
     estimated scf accuracy    <       0.00066053 Ry

     iteration #  4     ecut=    40.00 Ry     beta= 0.70
     Davidson diagonalization with overlap
     ethr =  4.40E-06,  avg # of iterations =  1.5

     total cpu time spent up to now is      224.3 secs

     total energy              =     -97.66567274 Ry
     estimated scf accuracy    <       0.00005111 Ry

     iteration #  5     ecut=    40.00 Ry     beta= 0.70
     Davidson diagonalization with overlap
     ethr =  3.41E-07,  avg # of iterations =  1.9

     total cpu time spent up to now is      224.7 secs

     total energy              =     -97.66568200 Ry
     estimated scf accuracy    <       0.00000046 Ry

     iteration #  6     ecut=    40.00 Ry     beta= 0.70
     Davidson diagonalization with overlap
     ethr =  3.06E-09,  avg # of iterations =  3.5

     total cpu time spent up to now is      225.3 secs

     total energy              =     -97.66568236 Ry
     estimated scf accuracy    <       0.00000003 Ry

     iteration #  7     ecut=    40.00 Ry     beta= 0.70
     Davidson diagonalization with overlap
     ethr =  1.72E-10,  avg # of iterations =  2.3

     total cpu time spent up to now is      225.7 secs

     total energy              =     -97.66568237 Ry
     estimated scf accuracy    <          1.2E-09 Ry

     iteration #  8     ecut=    40.00 Ry     beta= 0.70
     Davidson diagonalization with overlap
     ethr =  8.17E-12,  avg # of iterations =  2.4

     total cpu time spent up to now is      226.2 secs

     End of self-consistent calculation

          k = 0.0000 0.0000 0.0000 (   829 PWs)   bands (ev):

   -40.5866 -20.2069 -10.5579  -4.3185  -1.6497  -1.0777   1.5911   2.7949
    10.0118  10.1665  16.5410  17.9819

          k = 0.0244 0.0069 0.3735 (   829 PWs)   bands (ev):

   -40.5791 -20.0156 -11.0014  -4.1228  -2.0383  -1.8093   2.2969   2.6702
     9.2986  11.9760  15.7728  17.7193

          k =-0.0489-0.0138-0.7470 (   822 PWs)   bands (ev):

   -40.5716 -19.8069 -11.4459  -3.5525  -3.0492  -2.2035   2.0180   3.5255
     9.4433  13.3336  14.3673  18.2482

          k = 0.1393 0.2693-0.1577 (   829 PWs)   bands (ev):

   -40.5790 -20.1562 -10.6398  -4.1696  -2.3881  -1.2732   1.7958   2.9277
     9.5247  11.5731  15.5414  17.9546

          k = 0.1637 0.2762 0.2158 (   828 PWs)   bands (ev):

   -40.5795 -20.0664 -11.0952  -4.2027  -2.0434  -1.4586   2.6274   2.7485
    10.1425  11.5240  15.3248  16.4966

          k = 0.0904 0.2555-0.9048 (   842 PWs)   bands (ev):

   -40.5721 -19.8626 -11.5139  -3.6621  -2.9657  -2.0474   2.3892   3.6691
     9.8040  13.1650  14.6720  16.1405

          k = 0.1148 0.2624-0.5312 (   834 PWs)   bands (ev):

   -40.5716 -19.9603 -11.0808  -3.8488  -2.7980  -2.0856   2.4671   2.8258
     9.0508  13.1578  15.3179  18.1692

          k =-0.2786-0.5387 0.3154 (   822 PWs)   bands (ev):

   -40.5713 -20.1033 -10.7240  -3.9688  -3.0887  -1.4233   1.8766   3.1413
     9.3091  13.0781  14.5446  18.1541

          k =-0.2541-0.5318 0.6890 (   842 PWs)   bands (ev):

   -40.5719 -20.0122 -11.1683  -4.0257  -2.4627  -2.0522   2.6026   3.2119
     9.6805  13.2485  14.3766  17.3937

          k =-0.3274-0.5525-0.4316 (   840 PWs)   bands (ev):

   -40.5724 -19.9177 -11.5845  -3.6538  -3.1884  -1.5390   2.6016   3.8579
    10.3412  12.2750  14.6712  15.9205

          k = 0.2746 0.0074-0.2933 (   828 PWs)   bands (ev):

   -40.5787 -19.9879 -11.3450  -3.2894  -2.1246  -1.9861   2.4200   2.8918
     8.2654  11.9172  16.3005  18.1807

          k = 0.2990 0.0143 0.0802 (   814 PWs)   bands (ev):

   -40.5832 -20.1340 -10.9596  -3.8286  -1.8001  -1.4613   1.8766   2.9253
     9.0762  11.4535  15.5854  17.7802

          k = 0.2257-0.0064-1.0404 (   831 PWs)   bands (ev):

   -40.5758 -19.9419 -11.2936  -4.2164  -2.0920  -1.6819   2.3139   2.7740
     9.8218  12.7046  14.1059  17.1582

          k = 0.2501 0.0005-0.6668 (   832 PWs)   bands (ev):

   -40.5712 -19.7812 -11.7040  -3.4134  -2.5873  -2.2700   2.0013   3.6222
     9.4006  12.2986  14.8539  18.1346

          k =-0.1433-0.8006 0.1798 (   842 PWs)   bands (ev):

   -40.5711 -19.9362 -11.3667  -3.5002  -2.6527  -2.0483   2.4610   3.0162
     8.9920  12.7556  14.9065  17.4512

          k =-0.1188-0.7937 0.5534 (   831 PWs)   bands (ev):

   -40.5757 -20.0822 -11.0268  -3.6073  -2.5513  -1.7332   2.0769   2.9955
     8.9422  12.8443  15.6227  16.6690

          k =-0.1921-0.8144-0.5672 (   832 PWs)   bands (ev):

   -40.5762 -19.9890 -11.4427  -3.9530  -2.2028  -1.5141   2.7733   2.8948
     9.3382  12.8238  13.7369  16.9282

          k =-0.1677-0.8075-0.1937 (   836 PWs)   bands (ev):

   -40.5716 -19.8354 -11.7809  -3.3838  -2.8498  -1.8735   2.3928   3.7962
     9.8685  12.0948  14.5148  16.1810

          k =-0.0040-0.5313 0.0221 (   834 PWs)   bands (ev):

   -40.5743 -20.0036 -11.3985  -3.6379  -2.1081  -1.8881   2.8147   2.8837
     9.5306  12.6626  13.3931  16.8015

          k = 0.0205-0.5244 0.3956 (   832 PWs)   bands (ev):

   -40.5709 -20.0498 -10.9573  -3.7753  -2.8727  -1.6608   1.9771   2.9081
     9.3600  13.1706  14.6570  16.7206

          k =-0.0529-0.5451-0.7249 (   836 PWs)   bands (ev):

   -40.5715 -19.9510 -11.4381  -3.6841  -2.4865  -2.0023   2.7205   2.9728
     8.9867  13.3539  14.3939  17.2604

          k =-0.5492-0.0148 0.5866 (   840 PWs)   bands (ev):

   -40.5707 -19.7542 -11.9486  -2.8432  -2.6611  -2.2922   2.0690   3.8109
     9.2992  11.2496  14.8918  18.1676

          k =-0.5247-0.0079 0.9602 (   832 PWs)   bands (ev):

   -40.5753 -19.9125 -11.6172  -3.4737  -2.2327  -1.7943   2.4089   3.1601
     8.6302  12.2506  15.0431  17.7867

          k =-0.5980-0.0286-0.1604 (   828 PWs)   bands (ev):

   -40.5799 -20.0580 -11.3296  -3.2934  -2.0490  -1.7982   2.1357   3.1078
     8.4704  12.7173  14.1486  17.8685

          k =-0.1353 0.2619 0.1356 (   829 PWs)   bands (ev):

   -40.5819 -20.0535 -11.3821  -3.4223  -1.8453  -1.4635   2.4250   2.9522
     8.7818  11.5928  15.2352  16.4004

          k =-0.1597 0.2550-0.2379 (   828 PWs)   bands (ev):

   -40.5786 -20.1029 -10.8891  -3.9571  -2.1517  -1.4584   1.7345   2.8400
     9.7063  11.5821  15.7898  16.0246

          k =-0.0864 0.2757 0.8826 (   842 PWs)   bands (ev):

   -40.5711 -19.9033 -11.2945  -3.9867  -2.6200  -1.7850   2.2926   2.7085
     9.4071  13.0661  14.5136  17.4255

          k =-0.1109 0.2688 0.5091 (   834 PWs)   bands (ev):

   -40.5745 -19.8482 -11.7750  -3.0739  -2.5956  -1.9524   2.3398   3.4795
     9.0012  12.1704  14.6850  17.0004

          k = 0.2706-0.5238-0.2712 (   822 PWs)   bands (ev):

   -40.5772 -19.8855 -12.0929  -2.5927  -2.2574  -1.4723   2.6377   3.5483
     8.5942  11.5356  14.2483  15.5709

          k = 0.2462-0.5307-0.6447 (   842 PWs)   bands (ev):

   -40.5738 -19.9420 -11.6473  -3.1890  -2.3996  -1.7437   2.5312   3.1561
     8.8331  12.8211  13.3605  16.4852

          k = 0.3195-0.5100 0.4758 (   840 PWs)   bands (ev):

   -40.5705 -19.9949 -11.1764  -3.4026  -2.9895  -1.7266   1.8680   2.9523
     9.2200  12.8095  15.4847  16.2080

          k = 0.1313-0.7932-0.1135 (   842 PWs)   bands (ev):

   -40.5740 -19.8206 -12.0221  -2.7523  -2.4232  -1.9482   2.4590   3.6336
     8.8808  11.1155  15.2980  16.6149

          k = 0.1069-0.8001-0.4870 (   831 PWs)   bands (ev):

   -40.5786 -19.9756 -11.7001  -3.1655  -2.0388  -1.5946   2.6639   3.1759
     8.2638  11.8995  14.2880  16.8720

          k = 0.1802-0.7794 0.6336 (   832 PWs)   bands (ev):

   -40.5752 -20.0268 -11.2551  -3.3788  -2.4078  -1.8896   2.0109   3.0488
     8.8485  12.9717  14.9600  16.2108

          k = 0.1558-0.7863 0.2600 (   836 PWs)   bands (ev):

   -40.5707 -19.8778 -11.5672  -3.4999  -2.7948  -1.6742   2.3521   3.0602
     9.1897  12.7045  14.2501  16.6016

          k =-0.0284-0.5382-0.3514 (   832 PWs)   bands (ev):

   -40.5748 -19.9016 -11.8512  -3.0991  -2.8152  -1.4490   2.6909   3.6248
     9.3705  12.4230  13.3224  16.5206

     the Fermi energy is     3.0610 ev

!    total energy              =     -97.66568237 Ry
     estimated scf accuracy    <          4.4E-11 Ry
     smearing contrib. (-TS)   =      -0.00652267 Ry
     internal energy E=F+TS    =     -97.65915970 Ry

     The total energy is F=E-TS. E is the sum of the following terms:
     one-electron contribution =     -35.29084479 Ry
     hartree contribution      =      23.60685918 Ry
     xc contribution           =     -18.16658359 Ry
     ewald contribution        =     -48.73700797 Ry
     one-center paw contrib.   =     -19.07158253 Ry

     convergence has been achieved in   8 iterations

     Forces acting on atoms (cartesian axes, Ry/au):

     atom    1 type  1   force =    -0.00171325    0.00226400    0.00501675
     atom    2 type  2   force =    -0.01634248    0.00679152    0.00947904
     atom    3 type  2   force =     0.01805573   -0.00905552   -0.01449579

     Total force =     0.032472     Total SCF correction =     0.000007


     Computing stress (Cartesian axis) and pressure

          total   stress  (Ry/bohr**3)                   (kbar)     P=       -1.37
  -0.00003619   0.00003793   0.00013119           -5.32        5.58       19.30
   0.00003793  -0.00001349  -0.00002871            5.58       -1.98       -4.22
   0.00013119  -0.00002871   0.00002165           19.30       -4.22        3.18

     Energy error            =      6.8E-05 Ry
     Gradient error          =      1.8E-02 Ry/Bohr
     Cell gradient error     =      1.9E+01 kbar

     number of scf cycles    =  50
     number of bfgs steps    =  45

     enthalpy           old  =     -97.6656147104 Ry
     enthalpy           new  =     -97.6656823723 Ry

     CASE: enthalpy          _new < enthalpy          _old


     WARNING: info= 12 for Hessian

     WARNING: bfgs curvature condition failed, Theta= 0.814
     new trust radius        =       0.1163190803 bohr

     The maximum number of steps has been reached.

     End of BFGS Geometry Optimization
     new unit-cell volume =    196.18908 a.u.^3 (    29.07222 Ang^3 )
     density =      0.17135 g/cm^3

CELL_PARAMETERS (angstrom)
   3.319288794  -1.853300679  -0.214976881
   3.146350573   1.726747125  -0.278694219
   2.516764644   0.033058277   2.320376501

ATOMIC_POSITIONS (angstrom)
Li               0.9178756436        1.3189794963        0.6332180862
O               -0.9042857035        0.8364603561        0.1534086903
O                1.2946900752       -0.4419218978        0.5011191148



     Writing config-only to output data dir ./tmp/pwscf.save/ :
     XML data file
     NEW-OLD atomic charge density approx. for the potential
     New effective cutoffs (rho, wfc):  393.55   48.96

     Check: negative core charge=   -0.000006

     Writing all to output data dir ./tmp/pwscf.save/ :
     XML data file, charge density, pseudopotentials, collected wavefunctions

     init_run     :      0.43s CPU      0.45s WALL (       1 calls)
     electrons    :    197.00s CPU    208.15s WALL (      50 calls)
     update_pot   :      3.33s CPU      3.40s WALL (      50 calls)
     forces       :      2.27s CPU      2.33s WALL (      50 calls)
     stress       :      7.82s CPU      7.91s WALL (      50 calls)

     Called by init_run:
     wfcinit      :      0.13s CPU      0.14s WALL (       1 calls)
     potinit      :      0.09s CPU      0.10s WALL (       1 calls)
     hinit0       :      0.19s CPU      0.20s WALL (       1 calls)

     Called by electrons:
     c_bands      :    147.99s CPU    157.60s WALL (     373 calls)
     sum_band     :     21.31s CPU     22.07s WALL (     373 calls)
     v_of_rho     :      4.85s CPU      4.98s WALL (     424 calls)
     newd         :      3.32s CPU      3.37s WALL (     424 calls)
     PAW_pot      :     24.77s CPU     24.87s WALL (     474 calls)
     mix_rho      :      0.43s CPU      0.45s WALL (     373 calls)

     Called by c_bands:
     init_us_2    :      1.87s CPU      2.13s WALL (   32292 calls)
     cegterg      :    144.13s CPU    150.35s WALL (   13428 calls)

     Called by *egterg:
     cdiaghg      :     10.64s CPU     10.99s WALL (   54788 calls)
     h_psi        :    110.27s CPU    115.46s WALL (   56588 calls)
     s_psi        :      3.89s CPU      4.02s WALL (   56588 calls)
     g_psi        :      0.39s CPU      0.41s WALL (   43124 calls)

     Called by h_psi:
     h_psi:calbec :      4.51s CPU      4.66s WALL (   56588 calls)
     vloc_psi     :    100.90s CPU    105.75s WALL (   56588 calls)
                                        0.00s GPU  (   56588 calls)
     add_vuspsi   :      4.24s CPU      4.39s WALL (   56588 calls)

     General routines
     calbec       :      9.19s CPU      9.43s WALL (  102416 calls)
     fft          :      3.55s CPU      3.72s WALL (    6712 calls)
     ffts         :      0.14s CPU      0.15s WALL (     797 calls)
     fftw         :    108.08s CPU    113.12s WALL ( 1160506 calls)
     interpolate  :      0.34s CPU      0.35s WALL (     424 calls)
     davcio       :      0.00s CPU      0.00s WALL (      36 calls)

     Parallel routines

     PWSCF        :   3m34.88s CPU   3m46.62s WALL


   This run was terminated on:  19:27:25  29Dec2024            

=------------------------------------------------------------------------------=
   JOB DONE.
=------------------------------------------------------------------------------=
