 vasp.6.3.0 20Jan22 (build Jul  1 2024 12:21:46) complex                         
 executed on             LinuxGNU date 2024.10.21  13:11:32
 running    1 mpi-ranks, with    1 threads/rank
 distrk:  each k-point on    1 cores,    1 groups
 distr:  one band on NCORE=   1 cores,    1 groups


--------------------------------------------------------------------------------------------------------


 INCAR:
   SYSTEM = Alumina_orthorombic_cell_under_strain
   ISTART = 0
   ICHARG = 2
   ENCUT = 400
   ALGO = Normal
   PREC = Normal
   ISPIN = 1
   LWAVE = T             (Write WAVECAR)
   LCHARG = T             (Write CHGCAR)
   NPAR = 1
   EDIFF = 1E-6
   NSW = 0
   NELM = 100
   POTIM = 0.5
   IBRION = -1
   ISMEAR = 1
   SIGMA = 0.026
   EDIFFG = -0.001
   ISIF = 2
   LREAL = Auto

 POTCAR:    PAW_PBE Al 04Jan2001                  
 POTCAR:    PAW_PBE O 08Apr2002                   
 POTCAR:    PAW_PBE Al 04Jan2001                  
   SHA256 =  17880443556af62b473fe41b62a467bd001ad55d2cabe504a3f22e34d4e9db96 Al/POTCAR             
   COPYR  = (c) Copyright 04Jan2001 Georg Kresse                                                    
   COPYR  = This file is part of the software VASP. Any use, copying, and all other rights are regul
   COPYR  = If you do not have a valid VASP license, you may not use, copy or distribute this file. 
   VRHFIN =Al: s2p1                                                                                 
   LEXCH  = PE                                                                                      
   EATOM  =    53.5387 eV,    3.9350 Ry                                                             
                                                                                                    
   TITEL  = PAW_PBE Al 04Jan2001                                                                    
   LULTRA =        F    use ultrasoft PP ?                                                          
   IUNSCR =        1    unscreen: 0-lin 1-nonlin 2-no                                               
   RPACOR =    1.500    partial core radius                                                         
   POMASS =   26.981; ZVAL   =    3.000    mass and valenz                                          
   RCORE  =    1.900    outmost cutoff radius                                                       
   RWIGS  =    2.650; RWIGS  =    1.402    wigner-seitz radius (au A)                               
   ENMAX  =  240.300; ENMIN  =  180.225 eV                                                          
   ICORE  =        2    local potential                                                             
   LCOR   =        T    correct aug charges                                                         
   LPAW   =        T    paw PP                                                                      
   EAUG   =  291.052                                                                                
   DEXC   =    0.000                                                                                
   RMAX   =    1.939    core radius for proj-oper                                                   
   RAUG   =    1.300    factor for augmentation sphere                                              
   RDEP   =    1.966    radius for radial grids                                                     
   RDEPT  =    1.856    core radius for aug-charge                                                  
                                                                                                    
   Atomic configuration                                                                             
    6 entries                                                                                       
     n  l   j            E        occ.                                                              
     1  0  0.50     -1511.1048   2.0000                                                             
     2  0  0.50      -108.1629   2.0000                                                             
     2  1  1.50       -69.6402   6.0000                                                             
     3  0  0.50        -7.7528   2.0000                                                             
     3  1  1.50        -2.7121   1.0000                                                             
     3  2  2.50        -2.7212   0.0000                                                             
   Description                                                                                      
     l       E           TYP  RCUT    TYP  RCUT                                                     
     0     -7.7528455     23  1.900                                                                 
     0     -3.3096929     23  1.900                                                                 
     1     -2.7120682     23  1.900                                                                 
     1     13.6058260     23  1.900                                                                 
     2     -2.7211652      7  1.900                                                                 
  local pseudopotential read in
  partial core-charges read in
  partial kinetic energy density read in
  atomic valenz-charges read in
  non local Contribution for L=           0  read in
    real space projection operators read in
  non local Contribution for L=           0  read in
    real space projection operators read in
  non local Contribution for L=           1  read in
    real space projection operators read in
  non local Contribution for L=           1  read in
    real space projection operators read in
    PAW grid and wavefunctions read in

   number of l-projection  operators is LMAX  =           4
   number of lm-projection operators is LMMAX =           8

 POTCAR:    PAW_PBE O 08Apr2002                   
   SHA256 =  818f92134a0a090dccd8ba1447fa70422a3b330e708bb4f08108d8ae51209ddf O/POTCAR              
   COPYR  = (c) Copyright 08Apr2002 Georg Kresse                                                    
   COPYR  = This file is part of the software VASP. Any use, copying, and all other rights are regul
   COPYR  = If you do not have a valid VASP license, you may not use, copy or distribute this file. 
   VRHFIN =O: s2p4                                                                                  
   LEXCH  = PE                                                                                      
   EATOM  =   432.3788 eV,   31.7789 Ry                                                             
                                                                                                    
   TITEL  = PAW_PBE O 08Apr2002                                                                     
   LULTRA =        F    use ultrasoft PP ?                                                          
   IUNSCR =        1    unscreen: 0-lin 1-nonlin 2-no                                               
   RPACOR =    1.200    partial core radius                                                         
   POMASS =   16.000; ZVAL   =    6.000    mass and valenz                                          
   RCORE  =    1.520    outmost cutoff radius                                                       
   RWIGS  =    1.550; RWIGS  =    0.820    wigner-seitz radius (au A)                               
   ENMAX  =  400.000; ENMIN  =  300.000 eV                                                          
   ICORE  =        2    local potential                                                             
   LCOR   =        T    correct aug charges                                                         
   LPAW   =        T    paw PP                                                                      
   EAUG   =  605.392                                                                                
   DEXC   =    0.000                                                                                
   RMAX   =    1.553    core radius for proj-oper                                                   
   RAUG   =    1.300    factor for augmentation sphere                                              
   RDEP   =    1.550    radius for radial grids                                                     
   RDEPT  =    1.329    core radius for aug-charge                                                  
                                                                                                    
   Atomic configuration                                                                             
    4 entries                                                                                       
     n  l   j            E        occ.                                                              
     1  0  0.50      -514.6923   2.0000                                                             
     2  0  0.50       -23.9615   2.0000                                                             
     2  1  0.50        -9.0305   4.0000                                                             
     3  2  1.50        -9.5241   0.0000                                                             
   Description                                                                                      
     l       E           TYP  RCUT    TYP  RCUT                                                     
     0    -23.9615318     23  1.200                                                                 
     0     -9.5240782     23  1.200                                                                 
     1     -9.0304911     23  1.520                                                                 
     1      8.1634956     23  1.520                                                                 
     2     -9.5240782      7  1.500                                                                 
  local pseudopotential read in
  partial core-charges read in
  partial kinetic energy density read in
  kinetic energy density of atom read in
  atomic valenz-charges read in
  non local Contribution for L=           0  read in
    real space projection operators read in
  non local Contribution for L=           0  read in
    real space projection operators read in
  non local Contribution for L=           1  read in
    real space projection operators read in
  non local Contribution for L=           1  read in
    real space projection operators read in
    PAW grid and wavefunctions read in

   number of l-projection  operators is LMAX  =           4
   number of lm-projection operators is LMMAX =           8

 Optimization of the real space projectors (new method)

 maximal supplied QI-value         = 19.84
 optimisation between [QCUT,QGAM] = [ 10.12, 20.44] = [ 28.68,116.96] Ry 
 Optimized for a Real-space Cutoff    1.23 Angstroem

   l    n(q)    QCUT    max X(q) W(low)/X(q) W(high)/X(q)  e(spline) 
   0      7    10.119   176.870    0.49E-04    0.18E-03    0.39E-07
   0      7    10.119   105.762    0.46E-04    0.18E-03    0.38E-07
   1      7    10.119    55.370    0.30E-03    0.37E-03    0.12E-06
   1      7    10.119    20.208    0.27E-03    0.35E-03    0.11E-06
 Optimization of the real space projectors (new method)

 maximal supplied QI-value         = 24.76
 optimisation between [QCUT,QGAM] = [ 10.15, 20.30] = [ 28.85,115.39] Ry 
 Optimized for a Real-space Cutoff    1.38 Angstroem

   l    n(q)    QCUT    max X(q) W(low)/X(q) W(high)/X(q)  e(spline) 
   0      8    10.150    20.381    0.22E-03    0.32E-03    0.29E-06
   0      8    10.150    15.268    0.23E-03    0.35E-03    0.30E-06
   1      8    10.150     5.964    0.46E-03    0.53E-03    0.21E-06
   1      8    10.150     5.382    0.38E-03    0.45E-03    0.19E-06
  PAW_PBE Al 04Jan2001                  :
 energy of atom  1       EATOM=  -53.5387
 kinetic energy error for atom=    0.0005 (will be added to EATOM!!)
  PAW_PBE O 08Apr2002                   :
 energy of atom  2       EATOM= -432.3788
 kinetic energy error for atom=    0.1156 (will be added to EATOM!!)


 POSCAR:    Al  O
  positions in direct lattice
  No initial velocities read in
 exchange correlation table for  LEXCH =        8
   RHO(1)=    0.500       N(1)  =     2000
   RHO(2)=  100.500       N(2)  =     4000



--------------------------------------------------------------------------------------------------------


 ion  position               nearest neighbor table
   1  0.126  0.016  0.390-  70 1.85  52 1.88  46 1.91  77 1.96  37 1.97  33 2.02   5 2.66  18 2.86
                            20 2.90  31 3.11  29 3.11  10 3.16   9 3.16   6 3.19
   2  0.126  0.516  0.390-  69 1.85  51 1.88  45 1.91  78 1.96  38 1.97  34 2.02   6 2.66  17 2.86
                            19 2.90  32 3.11  30 3.11   9 3.16  10 3.16   5 3.19
   3  0.626  0.016  0.390-  72 1.85  50 1.88  48 1.91  79 1.96  39 1.97  35 2.02   7 2.66  20 2.86
                            18 2.90  29 3.11  31 3.11  12 3.16  11 3.16   8 3.19
   4  0.626  0.516  0.390-  71 1.85  49 1.88  47 1.91  80 1.96  40 1.97  36 2.02   8 2.66  19 2.86
                            17 2.90  30 3.11  32 3.11  11 3.16  12 3.16   7 3.19
   5  0.126  0.234  0.610-  69 1.85  55 1.88  41 1.91  77 1.96  33 1.97  37 2.02   1 2.66  21 2.86
                            23 2.90  27 3.11  25 3.11  13 3.16  14 3.16   2 3.19
   6  0.126  0.734  0.610-  70 1.85  56 1.88  42 1.91  78 1.96  34 1.97  38 2.02   2 2.66  22 2.86
                            24 2.90  28 3.11  26 3.11  14 3.16  13 3.16   1 3.19
   7  0.626  0.234  0.610-  71 1.85  53 1.88  43 1.91  79 1.96  35 1.97  39 2.02   3 2.66  23 2.86
                            21 2.90  25 3.11  27 3.11  15 3.16  16 3.16   4 3.19
   8  0.626  0.734  0.610-  72 1.85  54 1.88  44 1.91  80 1.96  36 1.97  40 2.02   4 2.66  24 2.86
                            22 2.90  26 3.11  28 3.11  16 3.16  15 3.16   3 3.19
   9  0.124  0.266  0.110-  65 1.85  57 1.88  37 1.91  75 1.96  45 1.97  41 2.02  13 2.66  27 2.86
                            25 2.90  21 3.11  23 3.11   2 3.16   1 3.16  14 3.19
  10  0.124  0.766  0.110-  66 1.85  58 1.88  38 1.91  76 1.96  46 1.97  42 2.02  14 2.66  28 2.86
                            26 2.90  22 3.11  24 3.11   1 3.16   2 3.16  13 3.19
  11  0.624  0.266  0.110-  67 1.85  59 1.88  39 1.91  73 1.96  47 1.97  43 2.02  15 2.66  25 2.86
                            27 2.90  23 3.11  21 3.11   4 3.16   3 3.16  16 3.19
  12  0.624  0.766  0.110-  68 1.85  60 1.88  40 1.91  74 1.96  48 1.97  44 2.02  16 2.66  26 2.86
                            28 2.90  24 3.11  22 3.11   3 3.16   4 3.16  15 3.19
  13  0.124  0.484  0.890-  66 1.85  62 1.88  34 1.91  75 1.96  41 1.97  45 2.02   9 2.66  32 2.86
                            30 2.90  17 3.11  19 3.11   5 3.16   6 3.16  10 3.19
  14  0.124  0.984  0.890-  65 1.85  61 1.88  33 1.91  76 1.96  42 1.97  46 2.02  10 2.66  31 2.86
                            29 2.90  18 3.11  20 3.11   6 3.16   5 3.16   9 3.19
  15  0.624  0.484  0.890-  68 1.85  64 1.88  36 1.91  73 1.96  43 1.97  47 2.02  11 2.66  30 2.86
                            32 2.90  19 3.11  17 3.11   7 3.16   8 3.16  12 3.19
  16  0.624  0.984  0.890-  67 1.85  63 1.88  35 1.91  74 1.96  44 1.97  48 2.02  12 2.66  29 2.86
                            31 2.90  20 3.11  18 3.11   8 3.16   7 3.16  11 3.19
  17  0.374  0.484  0.610-  78 1.85  36 1.88  62 1.91  69 1.96  53 1.97  49 2.02  21 2.66   2 2.86
                             4 2.90  13 3.11  15 3.11  25 3.16  26 3.16  22 3.19
  18  0.374  0.984  0.610-  77 1.85  35 1.88  61 1.91  70 1.96  54 1.97  50 2.02  22 2.66   1 2.86
                             3 2.90  14 3.11  16 3.11  26 3.16  25 3.16  21 3.19
  19  0.874  0.484  0.610-  80 1.85  34 1.88  64 1.91  71 1.96  55 1.97  51 2.02  23 2.66   4 2.86
                             2 2.90  15 3.11  13 3.11  27 3.16  28 3.16  24 3.19
  20  0.874  0.984  0.610-  79 1.85  33 1.88  63 1.91  72 1.96  56 1.97  52 2.02  24 2.66   3 2.86
                             1 2.90  16 3.11  14 3.11  28 3.16  27 3.16  23 3.19
  21  0.374  0.266  0.390-  77 1.85  39 1.88  57 1.91  69 1.96  49 1.97  53 2.02  17 2.66   5 2.86
                             7 2.90   9 3.11  11 3.11  30 3.16  29 3.16  18 3.19
  22  0.374  0.766  0.390-  78 1.85  40 1.88  58 1.91  70 1.96  50 1.97  54 2.02  18 2.66   6 2.86
                             8 2.90  10 3.11  12 3.11  29 3.16  30 3.16  17 3.19
  23  0.874  0.266  0.390-  79 1.85  37 1.88  59 1.91  71 1.96  51 1.97  55 2.02  19 2.66   7 2.86
                             5 2.90  11 3.11   9 3.11  32 3.16  31 3.16  20 3.19
  24  0.874  0.766  0.390-  80 1.85  38 1.88  60 1.91  72 1.96  52 1.97  56 2.02  20 2.66   8 2.86
                             6 2.90  12 3.11  10 3.11  31 3.16  32 3.16  19 3.19
  25  0.376  0.234  0.890-  73 1.85  41 1.88  53 1.91  67 1.96  61 1.97  57 2.02  29 2.66  11 2.86
                             9 2.90   7 3.11   5 3.11  17 3.16  18 3.16  30 3.19
  26  0.376  0.734  0.890-  74 1.85  42 1.88  54 1.91  68 1.96  62 1.97  58 2.02  30 2.66  12 2.86
                            10 2.90   8 3.11   6 3.11  18 3.16  17 3.16  29 3.19
  27  0.876  0.234  0.890-  75 1.85  43 1.88  55 1.91  65 1.96  63 1.97  59 2.02  31 2.66   9 2.86
                            11 2.90   5 3.11   7 3.11  19 3.16  20 3.16  32 3.19
  28  0.876  0.734  0.890-  76 1.85  44 1.88  56 1.91  66 1.96  64 1.97  60 2.02  32 2.66  10 2.86
                            12 2.90   6 3.11   8 3.11  20 3.16  19 3.16  31 3.19
  29  0.376  0.016  0.110-  74 1.85  46 1.88  50 1.91  67 1.96  57 1.97  61 2.02  25 2.66  16 2.86
                            14 2.90   3 3.11   1 3.11  22 3.16  21 3.16  26 3.19
  30  0.376  0.516  0.110-  73 1.85  45 1.88  49 1.91  68 1.96  58 1.97  62 2.02  26 2.66  15 2.86
                            13 2.90   4 3.11   2 3.11  22 3.16  21 3.16  25 3.19
  31  0.876  0.016  0.110-  76 1.85  48 1.88  52 1.91  65 1.96  59 1.97  63 2.02  27 2.66  14 2.86
                            16 2.90   1 3.11   3 3.11  24 3.16  23 3.16  28 3.19
  32  0.876  0.516  0.110-  75 1.85  47 1.88  51 1.91  66 1.96  60 1.97  64 2.02  28 2.66  13 2.86
                            15 2.90   2 3.11   4 3.11  24 3.16  23 3.16  27 3.19
  33  0.054  0.051  0.654-  20 1.88  14 1.91   5 1.97   1 2.02
  34  0.054  0.551  0.654-  19 1.88  13 1.91   6 1.97   2 2.02
  35  0.554  0.051  0.654-  18 1.88  16 1.91   7 1.97   3 2.02
  36  0.554  0.551  0.654-  17 1.88  15 1.91   8 1.97   4 2.02
  37  0.054  0.199  0.346-  23 1.88   9 1.91   1 1.97   5 2.02
  38  0.054  0.699  0.346-  24 1.88  10 1.91   2 1.97   6 2.02
  39  0.554  0.199  0.346-  21 1.88  11 1.91   3 1.97   7 2.02
  40  0.554  0.699  0.346-  22 1.88  12 1.91   4 1.97   8 2.02
  41  0.196  0.301  0.846-  25 1.88   5 1.91  13 1.97   9 2.02
  42  0.196  0.801  0.846-  26 1.88   6 1.91  14 1.97  10 2.02
  43  0.696  0.301  0.846-  27 1.88   7 1.91  15 1.97  11 2.02
  44  0.696  0.801  0.846-  28 1.88   8 1.91  16 1.97  12 2.02
  45  0.196  0.449  0.154-  30 1.88   2 1.91   9 1.97  13 2.02
  46  0.196  0.949  0.154-  29 1.88   1 1.91  10 1.97  14 2.02
  47  0.696  0.449  0.154-  32 1.88   4 1.91  11 1.97  15 2.02
  48  0.696  0.949  0.154-  31 1.88   3 1.91  12 1.97  16 2.02
  49  0.446  0.449  0.346-   4 1.88  30 1.91  21 1.97  17 2.02
  50  0.446  0.949  0.346-   3 1.88  29 1.91  22 1.97  18 2.02
  51  0.946  0.449  0.346-   2 1.88  32 1.91  23 1.97  19 2.02
  52  0.946  0.949  0.346-   1 1.88  31 1.91  24 1.97  20 2.02
  53  0.446  0.301  0.654-   7 1.88  25 1.91  17 1.97  21 2.02
  54  0.446  0.801  0.654-   8 1.88  26 1.91  18 1.97  22 2.02
  55  0.946  0.301  0.654-   5 1.88  27 1.91  19 1.97  23 2.02
  56  0.946  0.801  0.654-   6 1.88  28 1.91  20 1.97  24 2.02
  57  0.304  0.199  0.154-   9 1.88  21 1.91  29 1.97  25 2.02
  58  0.304  0.699  0.154-  10 1.88  22 1.91  30 1.97  26 2.02
  59  0.804  0.199  0.154-  11 1.88  23 1.91  31 1.97  27 2.02
  60  0.804  0.699  0.154-  12 1.88  24 1.91  32 1.97  28 2.02
  61  0.304  0.051  0.846-  14 1.88  18 1.91  25 1.97  29 2.02
  62  0.304  0.551  0.846-  13 1.88  17 1.91  26 1.97  30 2.02
  63  0.804  0.051  0.846-  16 1.88  20 1.91  27 1.97  31 2.02
  64  0.804  0.551  0.846-  15 1.88  19 1.91  28 1.97  32 2.02
  65  0.025  0.125  0.000-  14 1.85   9 1.85  27 1.96  31 1.96
  66  0.025  0.625  0.000-  13 1.85  10 1.85  28 1.96  32 1.96
  67  0.525  0.125  0.000-  16 1.85  11 1.85  25 1.96  29 1.96
  68  0.525  0.625  0.000-  15 1.85  12 1.85  26 1.96  30 1.96
  69  0.225  0.375  0.500-   5 1.85   2 1.85  17 1.96  21 1.96
  70  0.225  0.875  0.500-   6 1.85   1 1.85  18 1.96  22 1.96
  71  0.725  0.375  0.500-   7 1.85   4 1.85  19 1.96  23 1.96
  72  0.725  0.875  0.500-   8 1.85   3 1.85  20 1.96  24 1.96
  73  0.475  0.375  0.000-  25 1.85  30 1.85  15 1.96  11 1.96
  74  0.475  0.875  0.000-  29 1.85  26 1.85  16 1.96  12 1.96
  75  0.975  0.375  0.000-  27 1.85  32 1.85  13 1.96   9 1.96
  76  0.975  0.875  0.000-  31 1.85  28 1.85  14 1.96  10 1.96
  77  0.275  0.125  0.500-  18 1.85  21 1.85   5 1.96   1 1.96
  78  0.275  0.625  0.500-  17 1.85  22 1.85   6 1.96   2 1.96
  79  0.775  0.125  0.500-  20 1.85  23 1.85   7 1.96   3 1.96
  80  0.775  0.625  0.500-  19 1.85  24 1.85   8 1.96   4 1.96

  LATTYP: Found a simple orthorhombic cell.
 ALAT       =     7.0335138409
 B/A-ratio  =     1.3681458986
 C/A-ratio  =     1.4070268484
  
  Lattice vectors:
  
 A1 = (   0.0000000000,   0.0000000000,   7.0335138409)
 A2 = (   9.6228731140,   0.0000000000,   0.0000000000)
 A3 = (   0.0000000000,   9.8963428130,   0.0000000000)


Analysis of symmetry for initial positions (statically):
=====================================================================
 Subroutine PRICEL returns following result:
 
  LATTYP: Found a simple orthorhombic cell.
 ALAT       =     4.8114365573
 B/A-ratio  =     1.0284187391
 C/A-ratio  =     1.4618323981
  
  Lattice vectors:
  
 A1 = (   4.8114365573,   0.0000000000,   0.0000000000)
 A2 = (   0.0000000000,   4.9481715174,   0.0000000000)
 A3 = (   0.0000000000,   0.0000000000,   7.0335138409)
 
   4 primitive cells build up your supercell.
 

 Routine SETGRP: Setting up the symmetry group for a 
 simple orthorhombic supercell.


 Subroutine GETGRP returns: Found  8 space group operations
 (whereof  2 operations were pure point group operations)
 out of a pool of  8 trial point group operations.


The static configuration has the point symmetry S_2 .
 The point group associated with its full space group is D_2h.


Analysis of symmetry for dynamics (positions and initial velocities):
=====================================================================
 Subroutine PRICEL returns following result:
 
  LATTYP: Found a simple orthorhombic cell.
 ALAT       =     4.8114365573
 B/A-ratio  =     1.0284187391
 C/A-ratio  =     1.4618323981
  
  Lattice vectors:
  
 A1 = (   4.8114365573,   0.0000000000,   0.0000000000)
 A2 = (   0.0000000000,   4.9481715174,   0.0000000000)
 A3 = (   0.0000000000,   0.0000000000,   7.0335138409)
 
   4 primitive cells build up your supercell.
 

 Routine SETGRP: Setting up the symmetry group for a 
 simple orthorhombic supercell.


 Subroutine GETGRP returns: Found  8 space group operations
 (whereof  2 operations were pure point group operations)
 out of a pool of  8 trial point group operations.


The dynamic configuration has the point symmetry S_2 .
 The point group associated with its full space group is D_2h.


Analysis of constrained symmetry for selective dynamics:
=====================================================================
 Subroutine PRICEL returns following result:
 
  LATTYP: Found a simple orthorhombic cell.
 ALAT       =     4.8114365573
 B/A-ratio  =     1.0284187391
 C/A-ratio  =     1.4618323981
  
  Lattice vectors:
  
 A1 = (   4.8114365573,   0.0000000000,   0.0000000000)
 A2 = (   0.0000000000,   4.9481715174,   0.0000000000)
 A3 = (   0.0000000000,   0.0000000000,   7.0335138409)
 
   4 primitive cells build up your supercell.
 

 Routine SETGRP: Setting up the symmetry group for a 
 simple orthorhombic supercell.


 Subroutine GETGRP returns: Found  8 space group operations
 (whereof  2 operations were pure point group operations)
 out of a pool of  8 trial point group operations.


The constrained configuration has the point symmetry S_2 .
 The point group associated with its full space group is D_2h.


 Subroutine INISYM returns: Found  8 space group operations
 (whereof  2 operations are pure point group operations),
 and found     4 'primitive' translations


----------------------------------------------------------------------------------------

                                     Primitive cell                                     

  volume of cell :     167.4526

  direct lattice vectors                    reciprocal lattice vectors
     4.811436557  0.000000000  0.000000000     0.207838135  0.000000000  0.000000000
     0.000000000  4.948171517  0.000000000     0.000000000  0.202094854  0.000000000
     0.000000000  0.000000000  7.033513841     0.000000000  0.000000000  0.142176446

  length of vectors
     4.811436557  4.948171517  7.033513841     0.207838135  0.202094854  0.142176446

  position of ions in fractional coordinates (direct lattice)
     0.252301010  0.031394432  0.389988368
     0.252301010  0.468605564  0.610011602
     0.247698990  0.531394421  0.110011610
     0.247698990  0.968605501  0.889988398
     0.747698961  0.968605501  0.610011602
     0.747698961  0.531394421  0.389988368
     0.752301039  0.468605564  0.889988398
     0.752301039  0.031394432  0.110011610
     0.107072531  0.102390997  0.654148561
     0.107072531  0.397608992  0.345851469
     0.392927454  0.602391023  0.845851439
     0.392927454  0.897608899  0.154148517
     0.892927514  0.897608899  0.345851469
     0.892927514  0.602391023  0.654148561
     0.607072486  0.397608992  0.154148517
     0.607072486  0.102390997  0.845851439
     0.050188047  0.249999994  0.000000000
     0.449811960  0.749999961  0.500000000
     0.949811900  0.749999961  0.000000000
     0.550188099  0.249999994  0.500000000

  ion indices of the primitive-cell ions
   primitive index   ion index
                 1           1
                 2           5
                 3          10
                 4          14
                 5          18
                 6          22
                 7          27
                 8          31
                 9          33
                10          37
                11          42
                12          46
                13          52
                14          56
                15          57
                16          61
                17          65
                18          70
                19          76
                20          77

----------------------------------------------------------------------------------------



 KPOINTS: k-points                                

Automatic generation of k-mesh.
 Grid dimensions read from file:
 generate k-points for:    4    4    4

 Generating k-lattice:

  Cartesian coordinates                     Fractional coordinates (reciprocal lattice)
     0.025979767  0.000000000  0.000000000     0.250000000  0.000000000  0.000000000
     0.000000000  0.025261857  0.000000000     0.000000000  0.250000000  0.000000000
     0.000000000  0.000000000  0.035544111     0.000000000  0.000000000  0.250000000

  Length of vectors
     0.025979767  0.025261857  0.035544111

  Shift w.r.t. Gamma in fractional coordinates (k-lattice)
     0.500000000  0.500000000  0.500000000

 
 Subroutine IBZKPT returns following result:
 ===========================================
 
 Found      8 irreducible k-points:
 
 Following reciprocal coordinates:
            Coordinates               Weight
  0.125000  0.125000  0.125000      8.000000
  0.375000  0.125000  0.125000      8.000000
  0.125000  0.375000  0.125000      8.000000
  0.375000  0.375000  0.125000      8.000000
  0.125000  0.125000  0.375000      8.000000
  0.375000  0.125000  0.375000      8.000000
  0.125000  0.375000  0.375000      8.000000
  0.375000  0.375000  0.375000      8.000000
 
 Following cartesian coordinates:
            Coordinates               Weight
  0.012990  0.012631  0.017772      8.000000
  0.038970  0.012631  0.017772      8.000000
  0.012990  0.037893  0.017772      8.000000
  0.038970  0.037893  0.017772      8.000000
  0.012990  0.012631  0.053316      8.000000
  0.038970  0.012631  0.053316      8.000000
  0.012990  0.037893  0.053316      8.000000
  0.038970  0.037893  0.053316      8.000000
 


--------------------------------------------------------------------------------------------------------




 Dimension of arrays:
   k-points           NKPTS =      8   k-points in BZ     NKDIM =      8   number of bands    NBANDS=    233
   number of dos      NEDOS =    301   number of ions     NIONS =     80
   non local maximal  LDIM  =      4   non local SUM 2l+1 LMDIM =      8
   total plane-waves  NPLWV =  82944
   max r-space proj   IRMAX =   1414   max aug-charges    IRDMAX=   5018
   dimension x,y,z NGX =    48 NGY =   48 NGZ =   36
   dimension x,y,z NGXF=    96 NGYF=   96 NGZF=   72
   support grid    NGXF=    96 NGYF=   96 NGZF=   72
   ions per type =              32  48
   NGX,Y,Z   is equivalent  to a cutoff of   8.29,  8.06,  8.51 a.u.
   NGXF,Y,Z  is equivalent  to a cutoff of  16.59, 16.13, 17.02 a.u.

 SYSTEM =  Alumina_orthorombic_cell_under_strain   
 POSCAR =     Al  O                                

 Startparameter for this run:
   NWRITE =      2    write-flag & timer
   PREC   = normal    normal or accurate (medium, high low for compatibility)
   ISTART =      0    job   : 0-new  1-cont  2-samecut
   ICHARG =      2    charge: 1-file 2-atom 10-const
   ISPIN  =      1    spin polarized calculation?
   LNONCOLLINEAR =      F non collinear calculations
   LSORBIT =      F    spin-orbit coupling
   INIWAV =      1    electr: 0-lowe 1-rand  2-diag
   LASPH  =      F    aspherical Exc in radial PAW
 Electronic Relaxation 1
   ENCUT  =  400.0 eV  29.40 Ry    5.42 a.u.  15.69 16.14 11.47*2*pi/ulx,y,z
   ENINI  =  400.0     initial cutoff
   ENAUG  =  605.4 eV  augmentation charge cutoff
   NELM   =    100;   NELMIN=  2; NELMDL= -5     # of ELM steps 
   EDIFF  = 0.1E-05   stopping-criterion for ELM
   LREAL  =      T    real-space projection
   NLSPLINE    = F    spline interpolate recip. space projectors
   LCOMPAT=      F    compatible to vasp.4.4
   GGA_COMPAT  = T    GGA compatible to vasp.4.4-vasp.4.6
   LMAXPAW     = -100 max onsite density
   LMAXMIX     =    2 max onsite mixed and CHGCAR
   VOSKOWN=      0    Vosko Wilk Nusair interpolation
   ROPT   =   -0.00050  -0.00050
 Ionic relaxation
   EDIFFG = -.1E-02   stopping-criterion for IOM
   NSW    =      0    number of steps for IOM
   NBLOCK =      1;   KBLOCK =      1    inner block; outer block 
   IBRION =     -1    ionic relax: 0-MD 1-quasi-New 2-CG
   NFREE  =      0    steps in history (QN), initial steepest desc. (CG)
   ISIF   =      2    stress and relaxation
   IWAVPR =     10    prediction:  0-non 1-charg 2-wave 3-comb
   ISYM   =      2    0-nonsym 1-usesym 2-fastsym
   LCORR  =      T    Harris-Foulkes like correction to forces

   POTIM  = 0.5000    time-step for ionic-motion
   TEIN   =    0.0    initial temperature
   TEBEG  =    0.0;   TEEND  =   0.0 temperature during run
   SMASS  =  -3.00    Nose mass-parameter (am)
   estimated Nose-frequenzy (Omega)   =  0.10E-29 period in steps = 0.13E+47 mass=  -0.212E-26a.u.
   SCALEE = 1.0000    scale energy and forces
   NPACO  =    256;   APACO  = 10.0  distance and # of slots for P.C.
   PSTRESS=    0.0 pullay stress

  Mass of Ions in am
   POMASS =  26.98 16.00
  Ionic Valenz
   ZVAL   =   3.00  6.00
  Atomic Wigner-Seitz radii
   RWIGS  =  -1.00 -1.00
  virtual crystal weights 
   VCA    =   1.00  1.00
   NELECT =     384.0000    total number of electrons
   NUPDOWN=      -1.0000    fix difference up-down

 DOS related values:
   EMIN   =  10.00;   EMAX   =-10.00  energy-range for DOS
   EFERMI =   0.00
   ISMEAR =     1;   SIGMA  =   0.03  broadening in eV -4-tet -1-fermi 0-gaus

 Electronic relaxation 2 (details)
   IALGO  =     38    algorithm
   LDIAG  =      T    sub-space diagonalisation (order eigenvalues)
   LSUBROT=      F    optimize rotation matrix (better conditioning)
   TURBO    =      0    0=normal 1=particle mesh
   IRESTART =      0    0=no restart 2=restart with 2 vectors
   NREBOOT  =      0    no. of reboots
   NMIN     =      0    reboot dimension
   EREF     =   0.00    reference energy to select bands
   IMIX   =      4    mixing-type and parameters
     AMIX     =   0.40;   BMIX     =  1.00
     AMIX_MAG =   1.60;   BMIX_MAG =  1.00
     AMIN     =   0.10
     WC   =   100.;   INIMIX=   1;  MIXPRE=   1;  MAXMIX= -45

 Intra band minimization:
   WEIMIN = 0.0000     energy-eigenvalue tresh-hold
   EBREAK =  0.11E-08  absolut break condition
   DEPER  =   0.30     relativ break condition  

   TIME   =   0.40     timestep for ELM

  volume/ion in A,a.u.               =       8.37        56.50
  Fermi-wavevector in a.u.,A,eV,Ry     =   1.359987  2.570002 25.164840  1.849564
  Thomas-Fermi vector in A             =   2.486687

 Write flags
   LWAVE        =      T    write WAVECAR
   LDOWNSAMPLE  =      F    k-point downsampling of WAVECAR
   LCHARG       =      T    write CHGCAR
   LVTOT        =      F    write LOCPOT, total local potential
   LVHAR        =      F    write LOCPOT, Hartree potential only
   LELF         =      F    write electronic localiz. function (ELF)
   LORBIT       =      0    0 simple, 1 ext, 2 COOP (PROOUT), +10 PAW based schemes


 Dipole corrections
   LMONO  =      F    monopole corrections only (constant potential shift)
   LDIPOL =      F    correct potential (dipole corrections)
   IDIPOL =      0    1-x, 2-y, 3-z, 4-all directions 
   EPSILON=  1.0000000 bulk dielectric constant

 Exchange correlation treatment:
   GGA     =    --    GGA type
   LEXCH   =     8    internal setting for exchange type
   LIBXC   =     F    Libxc                    
   VOSKOWN =     0    Vosko Wilk Nusair interpolation
   LHFCALC =     F    Hartree Fock is set to
   LHFONE  =     F    Hartree Fock one center treatment
   AEXX    =    0.0000 exact exchange contribution

 Linear response parameters
   LEPSILON=     F    determine dielectric tensor
   LRPA    =     F    only Hartree local field effects (RPA)
   LNABLA  =     F    use nabla operator in PAW spheres
   LVEL    =     F    velocity operator in full k-point grid
   CSHIFT  =0.1000    complex shift for real part using Kramers Kronig
   OMEGAMAX=  -1.0    maximum frequency
   DEG_THRESHOLD= 0.2000000E-02 threshold for treating states as degnerate
   RTIME   =   -0.100 relaxation time in fs
  (WPLASMAI=    0.000 imaginary part of plasma frequency in eV, 0.658/RTIME)
   DFIELD  = 0.0000000 0.0000000 0.0000000 field for delta impulse in time

  Optional k-point grid parameters
   LKPOINTS_OPT  =     F    use optional k-point grid
   KPOINTS_OPT_MODE=     1    mode for optional k-point grid

 Orbital magnetization related:
   ORBITALMAG=     F  switch on orbital magnetization
   LCHIMAG   =     F  perturbation theory with respect to B field
   DQ        =  0.001000  dq finite difference perturbation B field
   LLRAUG    =     F  two centre corrections for induced B field



--------------------------------------------------------------------------------------------------------


 Static calculation
 charge density and potential will be updated during run
 non-spin polarized calculation
 Variant of blocked Davidson
 Davidson routine will perform the subspace rotation
 perform sub-space diagonalisation
    after iterative eigenvector-optimisation
 modified Broyden-mixing scheme, WC =      100.0
 initial mixing is a Kerker type mixing with AMIX =  0.4000 and BMIX =      1.0000
 Hartree-type preconditioning will be used
 using additional bands           41
 real space projection scheme for non local part
 use partial core corrections
 calculate Harris-corrections to forces   (improved forces if not selfconsistent)
 use gradient corrections 
 use of overlap-Matrix (Vanderbilt PP)
 Methfessel and Paxton  Order N= 1 SIGMA  =   0.03


--------------------------------------------------------------------------------------------------------


  energy-cutoff  :      400.00
  volume of cell :      669.81
      direct lattice vectors                 reciprocal lattice vectors
     9.622873114  0.000000000  0.000000000     0.103919067  0.000000000  0.000000000
     0.000000000  9.896342813  0.000000000     0.000000000  0.101047429  0.000000000
     0.000000000  0.000000000  7.033513841     0.000000000  0.000000000  0.142176446

  length of vectors
     9.622873114  9.896342813  7.033513841     0.103919067  0.101047429  0.142176446



 k-points in units of 2pi/SCALE and weight: k-points                                
   0.01298988  0.01263093  0.01777206       0.125
   0.03896965  0.01263093  0.01777206       0.125
   0.01298988  0.03789279  0.01777206       0.125
   0.03896965  0.03789279  0.01777206       0.125
   0.01298988  0.01263093  0.05331617       0.125
   0.03896965  0.01263093  0.05331617       0.125
   0.01298988  0.03789279  0.05331617       0.125
   0.03896965  0.03789279  0.05331617       0.125

 k-points in reciprocal lattice and weights: k-points                                
   0.12500000  0.12500000  0.12500000       0.125
   0.37500000  0.12500000  0.12500000       0.125
   0.12500000  0.37500000  0.12500000       0.125
   0.37500000  0.37500000  0.12500000       0.125
   0.12500000  0.12500000  0.37500000       0.125
   0.37500000  0.12500000  0.37500000       0.125
   0.12500000  0.37500000  0.37500000       0.125
   0.37500000  0.37500000  0.37500000       0.125

 position of ions in fractional coordinates (direct lattice) 
   0.12615050  0.01569722  0.38998837
   0.12615050  0.51569723  0.38998837
   0.62615052  0.01569722  0.38998837
   0.62615052  0.51569723  0.38998837
   0.12615050  0.23430279  0.61001160
   0.12615050  0.73430277  0.61001160
   0.62615052  0.23430279  0.61001160
   0.62615052  0.73430277  0.61001160
   0.12384950  0.26569723  0.11001161
   0.12384950  0.76569723  0.11001161
   0.62384948  0.26569723  0.11001161
   0.62384948  0.76569723  0.11001161
   0.12384950  0.48430277  0.88998840
   0.12384950  0.98430277  0.88998840
   0.62384948  0.48430277  0.88998840
   0.62384948  0.98430277  0.88998840
   0.37384948  0.48430277  0.61001160
   0.37384948  0.98430277  0.61001160
   0.87384948  0.48430277  0.61001160
   0.87384948  0.98430277  0.61001160
   0.37384948  0.26569723  0.38998837
   0.37384948  0.76569723  0.38998837
   0.87384948  0.26569723  0.38998837
   0.87384948  0.76569723  0.38998837
   0.37615052  0.23430279  0.88998840
   0.37615052  0.73430277  0.88998840
   0.87615052  0.23430279  0.88998840
   0.87615052  0.73430277  0.88998840
   0.37615052  0.01569722  0.11001161
   0.37615052  0.51569723  0.11001161
   0.87615052  0.01569722  0.11001161
   0.87615052  0.51569723  0.11001161
   0.05353627  0.05119550  0.65414856
   0.05353627  0.55119553  0.65414856
   0.55353624  0.05119550  0.65414856
   0.55353624  0.55119553  0.65414856
   0.05353627  0.19880450  0.34585147
   0.05353627  0.69880447  0.34585147
   0.55353624  0.19880450  0.34585147
   0.55353624  0.69880447  0.34585147
   0.19646373  0.30119550  0.84585144
   0.19646373  0.80119553  0.84585144
   0.69646370  0.30119550  0.84585144
   0.69646370  0.80119553  0.84585144
   0.19646373  0.44880450  0.15414852
   0.19646373  0.94880447  0.15414852
   0.69646370  0.44880450  0.15414852
   0.69646370  0.94880447  0.15414852
   0.44646376  0.44880450  0.34585147
   0.44646376  0.94880447  0.34585147
   0.94646376  0.44880450  0.34585147
   0.94646376  0.94880447  0.34585147
   0.44646376  0.30119550  0.65414856
   0.44646376  0.80119553  0.65414856
   0.94646376  0.30119550  0.65414856
   0.94646376  0.80119553  0.65414856
   0.30353624  0.19880450  0.15414852
   0.30353624  0.69880447  0.15414852
   0.80353624  0.19880450  0.15414852
   0.80353624  0.69880447  0.15414852
   0.30353624  0.05119550  0.84585144
   0.30353624  0.55119553  0.84585144
   0.80353624  0.05119550  0.84585144
   0.80353624  0.55119553  0.84585144
   0.02509402  0.12500000  0.00000000
   0.02509402  0.62500000  0.00000000
   0.52509405  0.12500000  0.00000000
   0.52509405  0.62500000  0.00000000
   0.22490598  0.37500000  0.50000000
   0.22490598  0.87500000  0.50000000
   0.72490601  0.37500000  0.50000000
   0.72490601  0.87500000  0.50000000
   0.47490595  0.37500000  0.00000000
   0.47490595  0.87500000  0.00000000
   0.97490595  0.37500000  0.00000000
   0.97490595  0.87500000  0.00000000
   0.27509405  0.12500000  0.50000000
   0.27509405  0.62500000  0.50000000
   0.77509405  0.12500000  0.50000000
   0.77509405  0.62500000  0.50000000

 position of ions in cartesian coordinates  (Angst):
   1.21393030  0.15534503  2.74298858
   1.21393030  5.10351655  2.74298858
   6.02536700  0.15534503  2.74298858
   6.02536700  5.10351655  2.74298858
   1.21393030  2.31874071  4.29052505
   1.21393030  7.26691196  4.29052505
   6.02536700  2.31874071  4.29052505
   6.02536700  7.26691196  4.29052505
   1.19178798  2.62943085  0.77376818
   1.19178798  7.57760226  0.77376818
   6.00322439  2.62943085  0.77376818
   6.00322439  7.57760226  0.77376818
   1.19178798  4.79282626  6.25974571
   1.19178798  9.74099767  6.25974571
   6.00322439  4.79282626  6.25974571
   6.00322439  9.74099767  6.25974571
   3.59750611  4.79282626  4.29052505
   3.59750611  9.74099767  4.29052505
   8.40894267  4.79282626  4.29052505
   8.40894267  9.74099767  4.29052505
   3.59750611  2.62943085  2.74298858
   3.59750611  7.57760226  2.74298858
   8.40894267  2.62943085  2.74298858
   8.40894267  7.57760226  2.74298858
   3.61964872  2.31874071  6.25974571
   3.61964872  7.26691196  6.25974571
   8.43108528  2.31874071  6.25974571
   8.43108528  7.26691196  6.25974571
   3.61964872  0.15534503  0.77376818
   3.61964872  5.10351655  0.77376818
   8.43108528  0.15534503  0.77376818
   8.43108528  5.10351655  0.77376818
   0.51517269  0.50664821  4.60096296
   0.51517269  5.45481992  4.60096296
   5.32660903  0.50664821  4.60096296
   5.32660903  5.45481992  4.60096296
   0.51517269  1.96743749  2.43255109
   0.51517269  6.91560860  2.43255109
   5.32660903  1.96743749  2.43255109
   5.32660903  6.91560860  2.43255109
   1.89054552  2.98073392  5.94930780
   1.89054552  7.92890562  5.94930780
   6.70198179  2.98073392  5.94930780
   6.70198179  7.92890562  5.94930780
   1.89054552  4.44152319  1.08420572
   1.89054552  9.38969430  1.08420572
   6.70198179  4.44152319  1.08420572
   6.70198179  9.38969430  1.08420572
   4.29626408  4.44152319  2.43255109
   4.29626408  9.38969430  2.43255109
   9.10770064  4.44152319  2.43255109
   9.10770064  9.38969430  2.43255109
   4.29626408  2.98073392  4.60096296
   4.29626408  7.92890562  4.60096296
   9.10770064  2.98073392  4.60096296
   9.10770064  7.92890562  4.60096296
   2.92089075  1.96743749  1.08420572
   2.92089075  6.91560860  1.08420572
   7.73232731  1.96743749  1.08420572
   7.73232731  6.91560860  1.08420572
   2.92089075  0.50664821  5.94930780
   2.92089075  5.45481992  5.94930780
   7.73232731  0.50664821  5.94930780
   7.73232731  5.45481992  5.94930780
   0.24147660  1.23704285  0.00000000
   0.24147660  6.18521426  0.00000000
   5.05291341  1.23704285  0.00000000
   5.05291341  6.18521426  0.00000000
   2.16424171  3.71112856  3.51675692
   2.16424171  8.65929996  3.51675692
   6.97567855  3.71112856  3.51675692
   6.97567855  8.65929996  3.51675692
   4.56995970  3.71112856  0.00000000
   4.56995970  8.65929996  0.00000000
   9.38139626  3.71112856  0.00000000
   9.38139626  8.65929996  0.00000000
   2.64719514  1.23704285  3.51675692
   2.64719514  6.18521426  3.51675692
   7.45863169  1.23704285  3.51675692
   7.45863169  6.18521426  3.51675692



--------------------------------------------------------------------------------------------------------


 k-point   1 :   0.1250 0.1250 0.1250  plane waves:   12193
 k-point   2 :   0.3750 0.1250 0.1250  plane waves:   12152
 k-point   3 :   0.1250 0.3750 0.1250  plane waves:   12171
 k-point   4 :   0.3750 0.3750 0.1250  plane waves:   12190
 k-point   5 :   0.1250 0.1250 0.3750  plane waves:   12154
 k-point   6 :   0.3750 0.1250 0.3750  plane waves:   12158
 k-point   7 :   0.1250 0.3750 0.3750  plane waves:   12158
 k-point   8 :   0.3750 0.3750 0.3750  plane waves:   12174

 maximum and minimum number of plane-waves per node :     12193    12152

 maximum number of plane-waves:     12193
 maximum index in each direction: 
   IXMAX=   15   IYMAX=   16   IZMAX=   11
   IXMIN=  -16   IYMIN=  -16   IZMIN=  -11


 serial   3D FFT for wavefunctions
 parallel 3D FFT for charge:
    minimum data exchange during FFTs selected (reduces bandwidth)


 total amount of memory used by VASP MPI-rank0   485899. kBytes
=======================================================================

   base      :      30000. kBytes
   nonlr-proj:       8457. kBytes
   fftplans  :      23216. kBytes
   grid      :      41250. kBytes
   one-center:        245. kBytes
   wavefun   :     382731. kBytes

     INWAV:  cpu time      0.0001: real time      0.0003
 Broyden mixing: mesh for mixing (old mesh)
   NGX = 31   NGY = 33   NGZ = 23
  (NGX  = 96   NGY  = 96   NGZ  = 72)
  gives a total of  23529 points

 initial charge density was supplied:
 charge density of overlapping atoms calculated
 number of electron     384.0000000 magnetization 
 keeping initial charge density in first step


--------------------------------------------------------------------------------------------------------


 Maximum index for non-local projection operator         1335
 Maximum index for augmentation-charges         4671 (set IRDMAX)


--------------------------------------------------------------------------------------------------------


 First call to EWALD:  gamma=   0.203
 Maximum number of real-space cells 3x 2x 3
 Maximum number of reciprocal cells 3x 3x 2

    FEWALD:  cpu time      0.0727: real time      0.0730


--------------------------------------- Iteration      1(   1)  ---------------------------------------


    POTLOK:  cpu time      0.2747: real time      0.2758
    SETDIJ:  cpu time      0.0894: real time      0.0896
     EDDAV:  cpu time     37.1692: real time     37.3674
       DOS:  cpu time      0.0023: real time      0.0023
    --------------------------------------------
      LOOP:  cpu time     37.5355: real time     37.7353

 eigenvalue-minimisations  :  3728
 total energy-change (2. order) : 0.1857578E+04  (-0.1766287E+05)
 number of electron     384.0000000 magnetization 
 augmentation part      384.0000000 magnetization 

 Free energy of the ion-electron system (eV)
  ---------------------------------------------------
  alpha Z        PSCENC =       616.75729550
  Ewald energy   TEWEN  =    -19456.45770090
  -Hartree energ DENC   =     -4939.27732180
  -exchange      EXHF   =         0.00000000
  -V(xc)+E(xc)   XCENC  =       533.30106140
  PAW double counting   =     18752.77991877   -17816.57094691
  entropy T*S    EENTRO =        -0.00116456
  eigenvalues    EBANDS =      1705.19208964
  atomic energy  EATOM  =     22461.85434800
  Solvation  Ediel_sol  =         0.00000000
  ---------------------------------------------------
  free energy    TOTEN  =      1857.57757914 eV

  energy without entropy =     1857.57874370  energy(sigma->0) =     1857.57796732


--------------------------------------------------------------------------------------------------------




--------------------------------------- Iteration      1(   2)  ---------------------------------------


     EDDAV:  cpu time     42.8068: real time     43.0374
       DOS:  cpu time      0.0022: real time      0.0022
    --------------------------------------------
      LOOP:  cpu time     42.8090: real time     43.0396

 eigenvalue-minimisations  :  4400
 total energy-change (2. order) :-0.2385799E+04  (-0.2331890E+04)
 number of electron     384.0000000 magnetization 
 augmentation part      384.0000000 magnetization 

 Free energy of the ion-electron system (eV)
  ---------------------------------------------------
  alpha Z        PSCENC =       616.75729550
  Ewald energy   TEWEN  =    -19456.45770090
  -Hartree energ DENC   =     -4939.27732180
  -exchange      EXHF   =         0.00000000
  -V(xc)+E(xc)   XCENC  =       533.30106140
  PAW double counting   =     18752.77991877   -17816.57094691
  entropy T*S    EENTRO =         0.00035916
  eigenvalues    EBANDS =      -680.60852830
  atomic energy  EATOM  =     22461.85434800
  Solvation  Ediel_sol  =         0.00000000
  ---------------------------------------------------
  free energy    TOTEN  =      -528.22151508 eV

  energy without entropy =     -528.22187424  energy(sigma->0) =     -528.22163480


--------------------------------------------------------------------------------------------------------




--------------------------------------- Iteration      1(   3)  ---------------------------------------


     EDDAV:  cpu time     42.2817: real time     42.5146
       DOS:  cpu time      0.0026: real time      0.0026
    --------------------------------------------
      LOOP:  cpu time     42.2843: real time     42.5172

 eigenvalue-minimisations  :  4336
 total energy-change (2. order) :-0.1261986E+03  (-0.1256083E+03)
 number of electron     384.0000000 magnetization 
 augmentation part      384.0000000 magnetization 

 Free energy of the ion-electron system (eV)
  ---------------------------------------------------
  alpha Z        PSCENC =       616.75729550
  Ewald energy   TEWEN  =    -19456.45770090
  -Hartree energ DENC   =     -4939.27732180
  -exchange      EXHF   =         0.00000000
  -V(xc)+E(xc)   XCENC  =       533.30106140
  PAW double counting   =     18752.77991877   -17816.57094691
  entropy T*S    EENTRO =         0.00165895
  eigenvalues    EBANDS =      -806.80842901
  atomic energy  EATOM  =     22461.85434800
  Solvation  Ediel_sol  =         0.00000000
  ---------------------------------------------------
  free energy    TOTEN  =      -654.42011601 eV

  energy without entropy =     -654.42177496  energy(sigma->0) =     -654.42066899


--------------------------------------------------------------------------------------------------------




--------------------------------------- Iteration      1(   4)  ---------------------------------------


     EDDAV:  cpu time     42.2051: real time     42.4317
       DOS:  cpu time      0.0024: real time      0.0024
    --------------------------------------------
      LOOP:  cpu time     42.2074: real time     42.4341

 eigenvalue-minimisations  :  4328
 total energy-change (2. order) :-0.1509398E+01  (-0.1503883E+01)
 number of electron     384.0000000 magnetization 
 augmentation part      384.0000000 magnetization 

 Free energy of the ion-electron system (eV)
  ---------------------------------------------------
  alpha Z        PSCENC =       616.75729550
  Ewald energy   TEWEN  =    -19456.45770090
  -Hartree energ DENC   =     -4939.27732180
  -exchange      EXHF   =         0.00000000
  -V(xc)+E(xc)   XCENC  =       533.30106140
  PAW double counting   =     18752.77991877   -17816.57094691
  entropy T*S    EENTRO =         0.00168360
  eigenvalues    EBANDS =      -808.31785181
  atomic energy  EATOM  =     22461.85434800
  Solvation  Ediel_sol  =         0.00000000
  ---------------------------------------------------
  free energy    TOTEN  =      -655.92951416 eV

  energy without entropy =     -655.93119775  energy(sigma->0) =     -655.93007536


--------------------------------------------------------------------------------------------------------




--------------------------------------- Iteration      1(   5)  ---------------------------------------


     EDDAV:  cpu time     42.1454: real time     42.3737
       DOS:  cpu time      0.0025: real time      0.0025
    CHARGE:  cpu time      1.5032: real time      1.5109
    MIXING:  cpu time      0.0114: real time      0.0114
    --------------------------------------------
      LOOP:  cpu time     43.6626: real time     43.8985

 eigenvalue-minimisations  :  4328
 total energy-change (2. order) :-0.2997111E-01  (-0.2991950E-01)
 number of electron     384.0001465 magnetization 
 augmentation part       37.2722348 magnetization 

 Broyden mixing:
  rms(total) = 0.48801E+01    rms(broyden)= 0.48782E+01
  rms(prec ) = 0.64275E+01
  weight for this iteration     100.00

 Free energy of the ion-electron system (eV)
  ---------------------------------------------------
  alpha Z        PSCENC =       616.75729550
  Ewald energy   TEWEN  =    -19456.45770090
  -Hartree energ DENC   =     -4939.27732180
  -exchange      EXHF   =         0.00000000
  -V(xc)+E(xc)   XCENC  =       533.30106140
  PAW double counting   =     18752.77991877   -17816.57094691
  entropy T*S    EENTRO =         0.00168431
  eigenvalues    EBANDS =      -808.34782364
  atomic energy  EATOM  =     22461.85434800
  Solvation  Ediel_sol  =         0.00000000
  ---------------------------------------------------
  free energy    TOTEN  =      -655.95948527 eV

  energy without entropy =     -655.96116958  energy(sigma->0) =     -655.96004670


--------------------------------------------------------------------------------------------------------




--------------------------------------- Iteration      1(   6)  ---------------------------------------


    POTLOK:  cpu time      0.2957: real time      0.2973
    SETDIJ:  cpu time      0.0778: real time      0.0781
     EDDAV:  cpu time     40.5877: real time     40.8102
       DOS:  cpu time      0.0024: real time      0.0024
    CHARGE:  cpu time      1.5048: real time      1.5124
    MIXING:  cpu time      0.0109: real time      0.0109
    --------------------------------------------
      LOOP:  cpu time     42.4792: real time     42.7113

 eigenvalue-minimisations  :  4160
 total energy-change (2. order) : 0.6411316E+02  (-0.2773133E+02)
 number of electron     384.0001256 magnetization 
 augmentation part       31.5525350 magnetization 

 Broyden mixing:
  rms(total) = 0.16989E+01    rms(broyden)= 0.16964E+01
  rms(prec ) = 0.18923E+01
  weight for this iteration     100.00

 eigenvalues of (default mixing * dielectric matrix)
  average eigenvalue GAMMA=   0.9611
  0.9611

 Free energy of the ion-electron system (eV)
  ---------------------------------------------------
  alpha Z        PSCENC =       616.75729550
  Ewald energy   TEWEN  =    -19456.45770090
  -Hartree energ DENC   =     -5682.75748626
  -exchange      EXHF   =         0.00000000
  -V(xc)+E(xc)   XCENC  =       585.77740839
  PAW double counting   =     24169.95912458   -23248.00569977
  entropy T*S    EENTRO =         0.00065056
  eigenvalues    EBANDS =       -38.97426219
  atomic energy  EATOM  =     22461.85434800
  Solvation  Ediel_sol  =         0.00000000
  ---------------------------------------------------
  free energy    TOTEN  =      -591.84632208 eV

  energy without entropy =     -591.84697264  energy(sigma->0) =     -591.84653893


--------------------------------------------------------------------------------------------------------




--------------------------------------- Iteration      1(   7)  ---------------------------------------


    POTLOK:  cpu time      0.2929: real time      0.2942
    SETDIJ:  cpu time      0.0780: real time      0.0782
     EDDAV:  cpu time     43.3008: real time     43.5401
       DOS:  cpu time      0.0022: real time      0.0022
    CHARGE:  cpu time      1.5024: real time      1.5100
    MIXING:  cpu time      0.0111: real time      0.0112
    --------------------------------------------
      LOOP:  cpu time     45.1875: real time     45.4360

 eigenvalue-minimisations  :  4512
 total energy-change (2. order) : 0.1939309E-01  (-0.6057964E+00)
 number of electron     384.0001253 magnetization 
 augmentation part       31.1880319 magnetization 

 Broyden mixing:
  rms(total) = 0.93918E+00    rms(broyden)= 0.93899E+00
  rms(prec ) = 0.10592E+01
  weight for this iteration     100.00

 eigenvalues of (default mixing * dielectric matrix)
  average eigenvalue GAMMA=   1.3099
  1.1989  1.4209

 Free energy of the ion-electron system (eV)
  ---------------------------------------------------
  alpha Z        PSCENC =       616.75729550
  Ewald energy   TEWEN  =    -19456.45770090
  -Hartree energ DENC   =     -5747.42046477
  -exchange      EXHF   =         0.00000000
  -V(xc)+E(xc)   XCENC  =       591.31444654
  PAW double counting   =     28214.68919580   -27292.13915507
  entropy T*S    EENTRO =         0.00058425
  eigenvalues    EBANDS =        19.57452166
  atomic energy  EATOM  =     22461.85434800
  Solvation  Ediel_sol  =         0.00000000
  ---------------------------------------------------
  free energy    TOTEN  =      -591.82692899 eV

  energy without entropy =     -591.82751324  energy(sigma->0) =     -591.82712374


--------------------------------------------------------------------------------------------------------




--------------------------------------- Iteration      1(   8)  ---------------------------------------


    POTLOK:  cpu time      0.2934: real time      0.2970
    SETDIJ:  cpu time      0.0778: real time      0.0780
     EDDAV:  cpu time     41.7527: real time     41.9812
       DOS:  cpu time      0.0023: real time      0.0023
    CHARGE:  cpu time      1.5036: real time      1.5110
    MIXING:  cpu time      0.0120: real time      0.0121
    --------------------------------------------
      LOOP:  cpu time     43.6418: real time     43.8816

 eigenvalue-minimisations  :  4320
 total energy-change (2. order) :-0.1031566E-02  (-0.4674711E-01)
 number of electron     384.0001256 magnetization 
 augmentation part       31.2805315 magnetization 

 Broyden mixing:
  rms(total) = 0.28840E+00    rms(broyden)= 0.28840E+00
  rms(prec ) = 0.33969E+00
  weight for this iteration     100.00

 eigenvalues of (default mixing * dielectric matrix)
  average eigenvalue GAMMA=   1.5623
  2.5377  1.0745  1.0745

 Free energy of the ion-electron system (eV)
  ---------------------------------------------------
  alpha Z        PSCENC =       616.75729550
  Ewald energy   TEWEN  =    -19456.45770090
  -Hartree energ DENC   =     -5768.01032107
  -exchange      EXHF   =         0.00000000
  -V(xc)+E(xc)   XCENC  =       594.12654524
  PAW double counting   =     31379.94554640   -30456.65441343
  entropy T*S    EENTRO =         0.00060846
  eigenvalues    EBANDS =        36.61013125
  atomic energy  EATOM  =     22461.85434800
  Solvation  Ediel_sol  =         0.00000000
  ---------------------------------------------------
  free energy    TOTEN  =      -591.82796055 eV

  energy without entropy =     -591.82856901  energy(sigma->0) =     -591.82816337


--------------------------------------------------------------------------------------------------------




--------------------------------------- Iteration      1(   9)  ---------------------------------------


    POTLOK:  cpu time      0.2938: real time      0.2953
    SETDIJ:  cpu time      0.0778: real time      0.0780
     EDDAV:  cpu time     41.5415: real time     41.7717
       DOS:  cpu time      0.0025: real time      0.0025
    CHARGE:  cpu time      1.5078: real time      1.5159
    MIXING:  cpu time      0.0126: real time      0.0127
    --------------------------------------------
      LOOP:  cpu time     43.4360: real time     43.6760

 eigenvalue-minimisations  :  4272
 total energy-change (2. order) :-0.4718124E-01  (-0.1515143E-01)
 number of electron     384.0001254 magnetization 
 augmentation part       31.2166237 magnetization 

 Broyden mixing:
  rms(total) = 0.69155E-01    rms(broyden)= 0.69143E-01
  rms(prec ) = 0.71914E-01
  weight for this iteration     100.00

 eigenvalues of (default mixing * dielectric matrix)
  average eigenvalue GAMMA=   1.7350
  1.0281  1.0281  2.4418  2.4418

 Free energy of the ion-electron system (eV)
  ---------------------------------------------------
  alpha Z        PSCENC =       616.75729550
  Ewald energy   TEWEN  =    -19456.45770090
  -Hartree energ DENC   =     -5796.74693067
  -exchange      EXHF   =         0.00000000
  -V(xc)+E(xc)   XCENC  =       596.99084607
  PAW double counting   =     32785.55576903   -31862.27303332
  entropy T*S    EENTRO =         0.00060480
  eigenvalues    EBANDS =        62.44365970
  atomic energy  EATOM  =     22461.85434800
  Solvation  Ediel_sol  =         0.00000000
  ---------------------------------------------------
  free energy    TOTEN  =      -591.87514180 eV

  energy without entropy =     -591.87574659  energy(sigma->0) =     -591.87534340


--------------------------------------------------------------------------------------------------------




--------------------------------------- Iteration      1(  10)  ---------------------------------------


    POTLOK:  cpu time      0.2947: real time      0.2961
    SETDIJ:  cpu time      0.0779: real time      0.0782
     EDDAV:  cpu time     42.1826: real time     42.4113
       DOS:  cpu time      0.0023: real time      0.0023
    CHARGE:  cpu time      1.5054: real time      1.5124
    MIXING:  cpu time      0.0134: real time      0.0135
    --------------------------------------------
      LOOP:  cpu time     44.0764: real time     44.3139

 eigenvalue-minimisations  :  4336
 total energy-change (2. order) :-0.6363408E-02  (-0.2835301E-02)
 number of electron     384.0001255 magnetization 
 augmentation part       31.1910914 magnetization 

 Broyden mixing:
  rms(total) = 0.32251E-01    rms(broyden)= 0.32227E-01
  rms(prec ) = 0.38968E-01
  weight for this iteration     100.00

 eigenvalues of (default mixing * dielectric matrix)
  average eigenvalue GAMMA=   1.5331
  2.6314  2.3118  1.0086  1.0086  0.7052

 Free energy of the ion-electron system (eV)
  ---------------------------------------------------
  alpha Z        PSCENC =       616.75729550
  Ewald energy   TEWEN  =    -19456.45770090
  -Hartree energ DENC   =     -5799.49636602
  -exchange      EXHF   =         0.00000000
  -V(xc)+E(xc)   XCENC  =       597.24294692
  PAW double counting   =     32371.51168286   -31448.30936813
  entropy T*S    EENTRO =         0.00058688
  eigenvalues    EBANDS =        65.01506967
  atomic energy  EATOM  =     22461.85434800
  Solvation  Ediel_sol  =         0.00000000
  ---------------------------------------------------
  free energy    TOTEN  =      -591.88150520 eV

  energy without entropy =     -591.88209209  energy(sigma->0) =     -591.88170083


--------------------------------------------------------------------------------------------------------




--------------------------------------- Iteration      1(  11)  ---------------------------------------


    POTLOK:  cpu time      0.2967: real time      0.2982
    SETDIJ:  cpu time      0.0778: real time      0.0780
     EDDAV:  cpu time     41.8366: real time     42.0565
       DOS:  cpu time      0.0023: real time      0.0023
    CHARGE:  cpu time      1.4972: real time      1.5048
    MIXING:  cpu time      0.0132: real time      0.0133
    --------------------------------------------
      LOOP:  cpu time     43.7238: real time     43.9531

 eigenvalue-minimisations  :  4304
 total energy-change (2. order) : 0.1271481E-02  (-0.5869466E-03)
 number of electron     384.0001255 magnetization 
 augmentation part       31.2074016 magnetization 

 Broyden mixing:
  rms(total) = 0.19762E-01    rms(broyden)= 0.19759E-01
  rms(prec ) = 0.22211E-01
  weight for this iteration     100.00

 eigenvalues of (default mixing * dielectric matrix)
  average eigenvalue GAMMA=   1.5609
  2.7891  2.4833  1.0257  1.0257  1.0209  1.0209

 Free energy of the ion-electron system (eV)
  ---------------------------------------------------
  alpha Z        PSCENC =       616.75729550
  Ewald energy   TEWEN  =    -19456.45770090
  -Hartree energ DENC   =     -5798.34208338
  -exchange      EXHF   =         0.00000000
  -V(xc)+E(xc)   XCENC  =       597.17241344
  PAW double counting   =     32366.86302484   -31443.62588758
  entropy T*S    EENTRO =         0.00059579
  eigenvalues    EBANDS =        63.89776057
  atomic energy  EATOM  =     22461.85434800
  Solvation  Ediel_sol  =         0.00000000
  ---------------------------------------------------
  free energy    TOTEN  =      -591.88023372 eV

  energy without entropy =     -591.88082951  energy(sigma->0) =     -591.88043232


--------------------------------------------------------------------------------------------------------




--------------------------------------- Iteration      1(  12)  ---------------------------------------


    POTLOK:  cpu time      0.2941: real time      0.2956
    SETDIJ:  cpu time      0.0776: real time      0.0778
     EDDAV:  cpu time     41.5015: real time     41.7089
       DOS:  cpu time      0.0023: real time      0.0023
    CHARGE:  cpu time      1.4984: real time      1.5053
    MIXING:  cpu time      0.0148: real time      0.0149
    --------------------------------------------
      LOOP:  cpu time     43.3887: real time     43.6049

 eigenvalue-minimisations  :  4280
 total energy-change (2. order) :-0.1660562E-04  (-0.3358145E-03)
 number of electron     384.0001254 magnetization 
 augmentation part       31.2086467 magnetization 

 Broyden mixing:
  rms(total) = 0.55116E-02    rms(broyden)= 0.54900E-02
  rms(prec ) = 0.66981E-02
  weight for this iteration     100.00

 eigenvalues of (default mixing * dielectric matrix)
  average eigenvalue GAMMA=   1.5065
  2.8618  2.4615  1.1144  1.1144  1.0368  0.9781  0.9781

 Free energy of the ion-electron system (eV)
  ---------------------------------------------------
  alpha Z        PSCENC =       616.75729550
  Ewald energy   TEWEN  =    -19456.45770090
  -Hartree energ DENC   =     -5798.39923822
  -exchange      EXHF   =         0.00000000
  -V(xc)+E(xc)   XCENC  =       597.18161053
  PAW double counting   =     32282.42389221   -31359.20003152
  entropy T*S    EENTRO =         0.00060078
  eigenvalues    EBANDS =        63.95897329
  atomic energy  EATOM  =     22461.85434800
  Solvation  Ediel_sol  =         0.00000000
  ---------------------------------------------------
  free energy    TOTEN  =      -591.88025033 eV

  energy without entropy =     -591.88085110  energy(sigma->0) =     -591.88045059


--------------------------------------------------------------------------------------------------------




--------------------------------------- Iteration      1(  13)  ---------------------------------------


    POTLOK:  cpu time      0.2947: real time      0.2962
    SETDIJ:  cpu time      0.0778: real time      0.0780
     EDDAV:  cpu time     41.3077: real time     41.5035
       DOS:  cpu time      0.0023: real time      0.0023
    CHARGE:  cpu time      1.5002: real time      1.5072
    MIXING:  cpu time      0.0158: real time      0.0158
    --------------------------------------------
      LOOP:  cpu time     43.1985: real time     43.4030

 eigenvalue-minimisations  :  4256
 total energy-change (2. order) : 0.3192257E-04  (-0.4945909E-04)
 number of electron     384.0001255 magnetization 
 augmentation part       31.2140972 magnetization 

 Broyden mixing:
  rms(total) = 0.21969E-02    rms(broyden)= 0.21935E-02
  rms(prec ) = 0.25108E-02
  weight for this iteration     100.00

 eigenvalues of (default mixing * dielectric matrix)
  average eigenvalue GAMMA=   1.4984
  2.8601  2.4441  1.7715  0.9933  0.9933  1.0430  1.0430  0.8392

 Free energy of the ion-electron system (eV)
  ---------------------------------------------------
  alpha Z        PSCENC =       616.75729550
  Ewald energy   TEWEN  =    -19456.45770090
  -Hartree energ DENC   =     -5797.74630381
  -exchange      EXHF   =         0.00000000
  -V(xc)+E(xc)   XCENC  =       597.13587341
  PAW double counting   =     32275.31124382   -31352.06914801
  entropy T*S    EENTRO =         0.00059969
  eigenvalues    EBANDS =        63.33357390
  atomic energy  EATOM  =     22461.85434800
  Solvation  Ediel_sol  =         0.00000000
  ---------------------------------------------------
  free energy    TOTEN  =      -591.88021840 eV

  energy without entropy =     -591.88081810  energy(sigma->0) =     -591.88041830


--------------------------------------------------------------------------------------------------------




--------------------------------------- Iteration      1(  14)  ---------------------------------------


    POTLOK:  cpu time      0.2951: real time      0.2965
    SETDIJ:  cpu time      0.0780: real time      0.0792
     EDDAV:  cpu time     41.9396: real time     42.1402
       DOS:  cpu time      0.0023: real time      0.0023
    CHARGE:  cpu time      1.4972: real time      1.5042
    MIXING:  cpu time      0.0155: real time      0.0155
    --------------------------------------------
      LOOP:  cpu time     43.8276: real time     44.0379

 eigenvalue-minimisations  :  4336
 total energy-change (2. order) : 0.2869423E-05  (-0.4416866E-05)
 number of electron     384.0001255 magnetization 
 augmentation part       31.2132878 magnetization 

 Broyden mixing:
  rms(total) = 0.85792E-03    rms(broyden)= 0.85713E-03
  rms(prec ) = 0.93763E-03
  weight for this iteration     100.00

 eigenvalues of (default mixing * dielectric matrix)
  average eigenvalue GAMMA=   1.5220
  2.9494  2.5417  2.1494  0.9864  0.9864  1.0565  1.0565  0.9354  1.0367

 Free energy of the ion-electron system (eV)
  ---------------------------------------------------
  alpha Z        PSCENC =       616.75729550
  Ewald energy   TEWEN  =    -19456.45770090
  -Hartree energ DENC   =     -5797.83513704
  -exchange      EXHF   =         0.00000000
  -V(xc)+E(xc)   XCENC  =       597.13970710
  PAW double counting   =     32271.31485435   -31348.07215245
  entropy T*S    EENTRO =         0.00059936
  eigenvalues    EBANDS =        63.41797055
  atomic energy  EATOM  =     22461.85434800
  Solvation  Ediel_sol  =         0.00000000
  ---------------------------------------------------
  free energy    TOTEN  =      -591.88021554 eV

  energy without entropy =     -591.88081490  energy(sigma->0) =     -591.88041532


--------------------------------------------------------------------------------------------------------




--------------------------------------- Iteration      1(  15)  ---------------------------------------


    POTLOK:  cpu time      0.2900: real time      0.2914
    SETDIJ:  cpu time      0.0777: real time      0.0780
     EDDAV:  cpu time     32.3399: real time     32.4949
       DOS:  cpu time      0.0024: real time      0.0025
    --------------------------------------------
      LOOP:  cpu time     32.7101: real time     32.8669

 eigenvalue-minimisations  :  3096
 total energy-change (2. order) : 0.2468078E-06  (-0.3415122E-06)
 number of electron     384.0001255 magnetization 
 augmentation part       31.2132878 magnetization 

 Free energy of the ion-electron system (eV)
  ---------------------------------------------------
  alpha Z        PSCENC =       616.75729550
  Ewald energy   TEWEN  =    -19456.45770090
  -Hartree energ DENC   =     -5797.90157650
  -exchange      EXHF   =         0.00000000
  -V(xc)+E(xc)   XCENC  =       597.14310713
  PAW double counting   =     32267.40794057   -31344.16373437
  entropy T*S    EENTRO =         0.00059929
  eigenvalues    EBANDS =        63.47950600
  atomic energy  EATOM  =     22461.85434800
  Solvation  Ediel_sol  =         0.00000000
  ---------------------------------------------------
  free energy    TOTEN  =      -591.88021529 eV

  energy without entropy =     -591.88081458  energy(sigma->0) =     -591.88041505


--------------------------------------------------------------------------------------------------------




 average (electrostatic) potential at core
  the test charge radii are     1.0406  0.7215
  (the norm of the test charge is              1.0000)
       1 -71.2514       2 -71.2514       3 -71.2514       4 -71.2514       5 -71.2514
       6 -71.2514       7 -71.2514       8 -71.2514       9 -71.2514      10 -71.2514
      11 -71.2514      12 -71.2514      13 -71.2514      14 -71.2514      15 -71.2514
      16 -71.2514      17 -71.2514      18 -71.2514      19 -71.2514      20 -71.2514
      21 -71.2514      22 -71.2514      23 -71.2514      24 -71.2514      25 -71.2514
      26 -71.2514      27 -71.2514      28 -71.2514      29 -71.2514      30 -71.2514
      31 -71.2514      32 -71.2514      33 -66.7915      34 -66.7915      35 -66.7915
      36 -66.7915      37 -66.7915      38 -66.7915      39 -66.7915      40 -66.7915
      41 -66.7915      42 -66.7915      43 -66.7915      44 -66.7915      45 -66.7915
      46 -66.7915      47 -66.7915      48 -66.7915      49 -66.7915      50 -66.7915
      51 -66.7915      52 -66.7915      53 -66.7915      54 -66.7915      55 -66.7915
      56 -66.7915      57 -66.7915      58 -66.7915      59 -66.7915      60 -66.7915
      61 -66.7915      62 -66.7915      63 -66.7915      64 -66.7915      65 -66.6599
      66 -66.6599      67 -66.6599      68 -66.6599      69 -66.6599      70 -66.6599
      71 -66.6599      72 -66.6599      73 -66.6599      74 -66.6599      75 -66.6599
      76 -66.6599      77 -66.6599      78 -66.6599      79 -66.6599      80 -66.6599



 E-fermi :   6.5506     XC(G=0): -11.8353     alpha+bet :-17.0931

 Fermi energy:         6.5506384152

 k-point     1 :       0.1250    0.1250    0.1250
  band No.  band energies     occupation 
      1     -12.7367      2.00000
      2     -12.1335      2.00000
      3     -12.1081      2.00000
      4     -11.7743      2.00000
      5     -11.7440      2.00000
      6     -11.7210      2.00000
      7     -11.5823      2.00000
      8     -11.2865      2.00000
      9     -11.2755      2.00000
     10     -11.2165      2.00000
     11     -11.2084      2.00000
     12     -11.0561      2.00000
     13     -10.9752      2.00000
     14     -10.9186      2.00000
     15     -10.7954      2.00000
     16     -10.6903      2.00000
     17     -10.6889      2.00000
     18     -10.6004      2.00000
     19     -10.5567      2.00000
     20     -10.5357      2.00000
     21     -10.4915      2.00000
     22     -10.4847      2.00000
     23     -10.4365      2.00000
     24     -10.3629      2.00000
     25     -10.3620      2.00000
     26     -10.3567      2.00000
     27     -10.3211      2.00000
     28     -10.2495      2.00000
     29     -10.2106      2.00000
     30     -10.1301      2.00000
     31     -10.1055      2.00000
     32     -10.0956      2.00000
     33      -9.9843      2.00000
     34      -9.9558      2.00000
     35      -9.9463      2.00000
     36      -9.9368      2.00000
     37      -9.9095      2.00000
     38      -9.9073      2.00000
     39      -9.9036      2.00000
     40      -9.8937      2.00000
     41      -9.8309      2.00000
     42      -9.8118      2.00000
     43      -9.8097      2.00000
     44      -9.7816      2.00000
     45      -9.7150      2.00000
     46      -9.6599      2.00000
     47      -9.5911      2.00000
     48      -9.5634      2.00000
     49       0.1013      2.00000
     50       0.1607      2.00000
     51       0.2301      2.00000
     52       0.2464      2.00000
     53       0.2979      2.00000
     54       0.3467      2.00000
     55       0.3968      2.00000
     56       0.4792      2.00000
     57       0.5617      2.00000
     58       0.5769      2.00000
     59       0.5832      2.00000
     60       0.6145      2.00000
     61       0.6888      2.00000
     62       0.7442      2.00000
     63       0.7917      2.00000
     64       0.7968      2.00000
     65       0.8292      2.00000
     66       0.9824      2.00000
     67       1.2145      2.00000
     68       1.2286      2.00000
     69       1.2592      2.00000
     70       1.3170      2.00000
     71       1.3680      2.00000
     72       1.4105      2.00000
     73       1.4389      2.00000
     74       1.5145      2.00000
     75       1.5788      2.00000
     76       1.6572      2.00000
     77       1.7269      2.00000
     78       1.8069      2.00000
     79       1.8714      2.00000
     80       1.9234      2.00000
     81       1.9395      2.00000
     82       1.9550      2.00000
     83       1.9817      2.00000
     84       2.0065      2.00000
     85       2.1409      2.00000
     86       2.1809      2.00000
     87       2.1829      2.00000
     88       2.1896      2.00000
     89       2.2285      2.00000
     90       2.2811      2.00000
     91       2.2833      2.00000
     92       2.2838      2.00000
     93       2.3138      2.00000
     94       2.4862      2.00000
     95       2.6691      2.00000
     96       2.6695      2.00000
     97       2.7575      2.00000
     98       2.8199      2.00000
     99       2.8831      2.00000
    100       2.9914      2.00000
    101       3.0746      2.00000
    102       3.1167      2.00000
    103       3.1521      2.00000
    104       3.1652      2.00000
    105       3.3210      2.00000
    106       3.3972      2.00000
    107       3.4615      2.00000
    108       3.5277      2.00000
    109       3.5280      2.00000
    110       3.6559      2.00000
    111       3.7083      2.00000
    112       3.7156      2.00000
    113       3.7331      2.00000
    114       3.7960      2.00000
    115       3.8564      2.00000
    116       3.8786      2.00000
    117       3.8928      2.00000
    118       3.8934      2.00000
    119       3.9260      2.00000
    120       4.0698      2.00000
    121       4.0724      2.00000
    122       4.1036      2.00000
    123       4.1217      2.00000
    124       4.1814      2.00000
    125       4.2277      2.00000
    126       4.2625      2.00000
    127       4.2775      2.00000
    128       4.3477      2.00000
    129       4.4597      2.00000
    130       4.4626      2.00000
    131       4.6112      2.00000
    132       4.6260      2.00000
    133       4.6453      2.00000
    134       4.6544      2.00000
    135       4.7668      2.00000
    136       4.8256      2.00000
    137       4.8257      2.00000
    138       4.8585      2.00000
    139       4.8744      2.00000
    140       4.9295      2.00000
    141       4.9842      2.00000
    142       4.9869      2.00000
    143       5.0417      2.00000
    144       5.0551      2.00000
    145       5.0753      2.00000
    146       5.0823      2.00000
    147       5.1004      2.00000
    148       5.1055      2.00000
    149       5.1652      2.00000
    150       5.2309      2.00000
    151       5.2641      2.00000
    152       5.2812      2.00000
    153       5.3072      2.00000
    154       5.3190      2.00000
    155       5.3420      2.00000
    156       5.3458      2.00000
    157       5.4411      2.00000
    158       5.4516      2.00000
    159       5.5357      2.00000
    160       5.5380      2.00000
    161       5.5420      2.00000
    162       5.5699      2.00000
    163       5.5916      2.00000
    164       5.6049      2.00000
    165       5.6942      2.00000
    166       5.7054      2.00000
    167       5.7121      2.00000
    168       5.8364      2.00000
    169       5.8369      2.00000
    170       5.8437      2.00000
    171       5.8652      2.00000
    172       5.9363      2.00000
    173       5.9494      2.00000
    174       5.9836      2.00000
    175       6.0014      2.00000
    176       6.0717      2.00000
[...]
     0.000000000  9.896342813  0.000000000     0.000000000  0.101047429  0.000000000
     0.000000000  0.000000000  7.033513841     0.000000000  0.000000000  0.142176446

  length of vectors
     9.622873114  9.896342813  7.033513841     0.103919067  0.101047429  0.142176446


 FORCES acting on ions
    electron-ion (+dipol)            ewald-force                    non-local-force                 convergence-correction
 -----------------------------------------------------------------------------------------------
   0.338E+01 -.297E+01 0.165E+02   -.328E+01 0.703E+00 -.157E+02   -.101E+00 0.226E+01 -.774E+00   0.624E-04 -.169E-04 0.105E-03
   0.338E+01 -.297E+01 0.165E+02   -.328E+01 0.703E+00 -.157E+02   -.101E+00 0.226E+01 -.774E+00   0.624E-04 -.134E-04 0.105E-03
   0.338E+01 -.297E+01 0.165E+02   -.328E+01 0.703E+00 -.157E+02   -.101E+00 0.226E+01 -.774E+00   0.606E-04 -.169E-04 0.105E-03
   0.338E+01 -.297E+01 0.165E+02   -.328E+01 0.703E+00 -.157E+02   -.101E+00 0.226E+01 -.774E+00   0.606E-04 -.134E-04 0.105E-03
   0.338E+01 0.297E+01 -.165E+02   -.328E+01 -.703E+00 0.157E+02   -.101E+00 -.226E+01 0.774E+00   0.624E-04 0.151E-04 -.105E-03
   0.338E+01 0.297E+01 -.165E+02   -.328E+01 -.703E+00 0.157E+02   -.101E+00 -.226E+01 0.774E+00   0.624E-04 0.151E-04 -.105E-03
   0.338E+01 0.297E+01 -.165E+02   -.328E+01 -.703E+00 0.157E+02   -.101E+00 -.226E+01 0.774E+00   0.606E-04 0.151E-04 -.105E-03
   0.338E+01 0.297E+01 -.165E+02   -.328E+01 -.703E+00 0.157E+02   -.101E+00 -.226E+01 0.774E+00   0.606E-04 0.151E-04 -.105E-03
   -.338E+01 -.297E+01 -.165E+02   0.328E+01 0.703E+00 0.157E+02   0.101E+00 0.226E+01 0.774E+00   -.607E-04 -.146E-04 -.106E-03
   -.338E+01 -.297E+01 -.165E+02   0.328E+01 0.703E+00 0.157E+02   0.101E+00 0.226E+01 0.774E+00   -.607E-04 -.156E-04 -.106E-03
   -.338E+01 -.297E+01 -.165E+02   0.328E+01 0.703E+00 0.157E+02   0.101E+00 0.226E+01 0.774E+00   -.625E-04 -.146E-04 -.106E-03
   -.338E+01 -.297E+01 -.165E+02   0.328E+01 0.703E+00 0.157E+02   0.101E+00 0.226E+01 0.774E+00   -.625E-04 -.156E-04 -.106E-03
   -.338E+01 0.297E+01 0.165E+02   0.328E+01 -.703E+00 -.157E+02   0.101E+00 -.226E+01 -.774E+00   -.606E-04 0.169E-04 0.105E-03
   -.338E+01 0.297E+01 0.165E+02   0.328E+01 -.703E+00 -.157E+02   0.101E+00 -.226E+01 -.774E+00   -.606E-04 0.133E-04 0.105E-03
   -.338E+01 0.297E+01 0.165E+02   0.328E+01 -.703E+00 -.157E+02   0.101E+00 -.226E+01 -.774E+00   -.625E-04 0.169E-04 0.105E-03
   -.338E+01 0.297E+01 0.165E+02   0.328E+01 -.703E+00 -.157E+02   0.101E+00 -.226E+01 -.774E+00   -.625E-04 0.133E-04 0.105E-03
   -.338E+01 0.297E+01 -.165E+02   0.328E+01 -.703E+00 0.157E+02   0.101E+00 -.226E+01 0.774E+00   -.615E-04 0.169E-04 -.105E-03
   -.338E+01 0.297E+01 -.165E+02   0.328E+01 -.703E+00 0.157E+02   0.101E+00 -.226E+01 0.774E+00   -.615E-04 0.133E-04 -.105E-03
   -.338E+01 0.297E+01 -.165E+02   0.328E+01 -.703E+00 0.157E+02   0.101E+00 -.226E+01 0.774E+00   -.616E-04 0.169E-04 -.105E-03
   -.338E+01 0.297E+01 -.165E+02   0.328E+01 -.703E+00 0.157E+02   0.101E+00 -.226E+01 0.774E+00   -.616E-04 0.133E-04 -.105E-03
   -.338E+01 -.297E+01 0.165E+02   0.328E+01 0.703E+00 -.157E+02   0.101E+00 0.226E+01 -.774E+00   -.615E-04 -.146E-04 0.105E-03
   -.338E+01 -.297E+01 0.165E+02   0.328E+01 0.703E+00 -.157E+02   0.101E+00 0.226E+01 -.774E+00   -.615E-04 -.156E-04 0.105E-03
   -.338E+01 -.297E+01 0.165E+02   0.328E+01 0.703E+00 -.157E+02   0.101E+00 0.226E+01 -.774E+00   -.616E-04 -.146E-04 0.105E-03
   -.338E+01 -.297E+01 0.165E+02   0.328E+01 0.703E+00 -.157E+02   0.101E+00 0.226E+01 -.774E+00   -.616E-04 -.156E-04 0.105E-03
   0.338E+01 0.297E+01 0.165E+02   -.328E+01 -.703E+00 -.157E+02   -.101E+00 -.226E+01 -.774E+00   0.617E-04 0.151E-04 0.105E-03
   0.338E+01 0.297E+01 0.165E+02   -.328E+01 -.703E+00 -.157E+02   -.101E+00 -.226E+01 -.774E+00   0.617E-04 0.151E-04 0.105E-03
   0.338E+01 0.297E+01 0.165E+02   -.328E+01 -.703E+00 -.157E+02   -.101E+00 -.226E+01 -.774E+00   0.615E-04 0.151E-04 0.105E-03
   0.338E+01 0.297E+01 0.165E+02   -.328E+01 -.703E+00 -.157E+02   -.101E+00 -.226E+01 -.774E+00   0.615E-04 0.151E-04 0.105E-03
   0.338E+01 -.297E+01 -.165E+02   -.328E+01 0.703E+00 0.157E+02   -.101E+00 0.226E+01 0.774E+00   0.617E-04 -.169E-04 -.106E-03
   0.338E+01 -.297E+01 -.165E+02   -.328E+01 0.703E+00 0.157E+02   -.101E+00 0.226E+01 0.774E+00   0.617E-04 -.134E-04 -.106E-03
   0.338E+01 -.297E+01 -.165E+02   -.328E+01 0.703E+00 0.157E+02   -.101E+00 0.226E+01 0.774E+00   0.615E-04 -.169E-04 -.106E-03
   0.338E+01 -.297E+01 -.165E+02   -.328E+01 0.703E+00 0.157E+02   -.101E+00 0.226E+01 0.774E+00   0.615E-04 -.133E-04 -.106E-03
   0.672E+01 0.328E+01 -.184E+02   -.544E+01 -.259E+01 0.194E+02   -.129E+01 -.700E+00 -.982E+00   -.190E-03 0.259E-04 -.679E-03
   0.672E+01 0.328E+01 -.184E+02   -.544E+01 -.259E+01 0.194E+02   -.129E+01 -.700E+00 -.982E+00   -.190E-03 0.336E-04 -.680E-03
   0.672E+01 0.328E+01 -.184E+02   -.544E+01 -.259E+01 0.194E+02   -.129E+01 -.700E+00 -.982E+00   -.194E-03 0.259E-04 -.679E-03
   0.672E+01 0.328E+01 -.184E+02   -.544E+01 -.259E+01 0.194E+02   -.129E+01 -.700E+00 -.982E+00   -.194E-03 0.336E-04 -.679E-03
   0.672E+01 -.328E+01 0.184E+02   -.544E+01 0.259E+01 -.194E+02   -.129E+01 0.700E+00 0.982E+00   -.190E-03 -.302E-04 0.681E-03
   0.672E+01 -.328E+01 0.184E+02   -.544E+01 0.259E+01 -.194E+02   -.129E+01 0.700E+00 0.982E+00   -.190E-03 -.293E-04 0.680E-03
   0.672E+01 -.328E+01 0.184E+02   -.544E+01 0.259E+01 -.194E+02   -.129E+01 0.700E+00 0.982E+00   -.194E-03 -.302E-04 0.680E-03
   0.672E+01 -.328E+01 0.184E+02   -.544E+01 0.259E+01 -.194E+02   -.129E+01 0.700E+00 0.982E+00   -.194E-03 -.293E-04 0.680E-03
   -.672E+01 0.328E+01 0.184E+02   0.544E+01 -.259E+01 -.194E+02   0.129E+01 -.700E+00 0.982E+00   0.194E-03 0.315E-04 0.680E-03
   -.672E+01 0.328E+01 0.184E+02   0.544E+01 -.259E+01 -.194E+02   0.129E+01 -.700E+00 0.982E+00   0.194E-03 0.281E-04 0.680E-03
   -.672E+01 0.328E+01 0.184E+02   0.544E+01 -.259E+01 -.194E+02   0.129E+01 -.700E+00 0.982E+00   0.189E-03 0.315E-04 0.680E-03
   -.672E+01 0.328E+01 0.184E+02   0.544E+01 -.259E+01 -.194E+02   0.129E+01 -.700E+00 0.982E+00   0.189E-03 0.281E-04 0.680E-03
   -.672E+01 -.328E+01 -.184E+02   0.544E+01 0.259E+01 0.194E+02   0.129E+01 0.700E+00 -.982E+00   0.194E-03 -.255E-04 -.681E-03
   -.672E+01 -.328E+01 -.184E+02   0.544E+01 0.259E+01 0.194E+02   0.129E+01 0.700E+00 -.982E+00   0.194E-03 -.341E-04 -.682E-03
   -.672E+01 -.328E+01 -.184E+02   0.544E+01 0.259E+01 0.194E+02   0.129E+01 0.700E+00 -.982E+00   0.189E-03 -.255E-04 -.681E-03
   -.672E+01 -.328E+01 -.184E+02   0.544E+01 0.259E+01 0.194E+02   0.129E+01 0.700E+00 -.982E+00   0.189E-03 -.341E-04 -.682E-03
   -.672E+01 -.328E+01 0.184E+02   0.544E+01 0.259E+01 -.194E+02   0.129E+01 0.700E+00 0.982E+00   0.191E-03 -.255E-04 0.680E-03
   -.672E+01 -.328E+01 0.184E+02   0.544E+01 0.259E+01 -.194E+02   0.129E+01 0.700E+00 0.982E+00   0.191E-03 -.341E-04 0.681E-03
   -.672E+01 -.328E+01 0.184E+02   0.544E+01 0.259E+01 -.194E+02   0.129E+01 0.700E+00 0.982E+00   0.193E-03 -.255E-04 0.680E-03
   -.672E+01 -.328E+01 0.184E+02   0.544E+01 0.259E+01 -.194E+02   0.129E+01 0.700E+00 0.982E+00   0.193E-03 -.341E-04 0.681E-03
   -.672E+01 0.328E+01 -.184E+02   0.544E+01 -.259E+01 0.194E+02   0.129E+01 -.700E+00 -.982E+00   0.191E-03 0.315E-04 -.679E-03
   -.672E+01 0.328E+01 -.184E+02   0.544E+01 -.259E+01 0.194E+02   0.129E+01 -.700E+00 -.982E+00   0.191E-03 0.281E-04 -.679E-03
   -.672E+01 0.328E+01 -.184E+02   0.544E+01 -.259E+01 0.194E+02   0.129E+01 -.700E+00 -.982E+00   0.193E-03 0.315E-04 -.679E-03
   -.672E+01 0.328E+01 -.184E+02   0.544E+01 -.259E+01 0.194E+02   0.129E+01 -.700E+00 -.982E+00   0.193E-03 0.281E-04 -.679E-03
   0.672E+01 -.328E+01 -.184E+02   -.544E+01 0.259E+01 0.194E+02   -.129E+01 0.700E+00 -.982E+00   -.191E-03 -.302E-04 -.682E-03
   0.672E+01 -.328E+01 -.184E+02   -.544E+01 0.259E+01 0.194E+02   -.129E+01 0.700E+00 -.982E+00   -.191E-03 -.293E-04 -.681E-03
   0.672E+01 -.328E+01 -.184E+02   -.544E+01 0.259E+01 0.194E+02   -.129E+01 0.700E+00 -.982E+00   -.193E-03 -.302E-04 -.682E-03
   0.672E+01 -.328E+01 -.184E+02   -.544E+01 0.259E+01 0.194E+02   -.129E+01 0.700E+00 -.982E+00   -.193E-03 -.293E-04 -.681E-03
   0.672E+01 0.328E+01 0.184E+02   -.544E+01 -.259E+01 -.194E+02   -.129E+01 -.700E+00 0.982E+00   -.191E-03 0.259E-04 0.680E-03
   0.672E+01 0.328E+01 0.184E+02   -.544E+01 -.259E+01 -.194E+02   -.129E+01 -.700E+00 0.982E+00   -.191E-03 0.336E-04 0.681E-03
   0.672E+01 0.328E+01 0.184E+02   -.544E+01 -.259E+01 -.194E+02   -.129E+01 -.700E+00 0.982E+00   -.193E-03 0.259E-04 0.680E-03
   0.672E+01 0.328E+01 0.184E+02   -.544E+01 -.259E+01 -.194E+02   -.129E+01 -.700E+00 0.982E+00   -.193E-03 0.336E-04 0.681E-03
   -.200E+02 -.436E-04 -.284E-04   0.209E+02 0.115E-04 0.395E-04   -.914E+00 -.953E-19 -.592E-19   -.108E-03 -.250E-05 -.148E-05
   -.200E+02 -.414E-04 -.244E-04   0.209E+02 -.414E-05 0.470E-05   -.914E+00 -.160E-18 -.148E-18   -.108E-03 0.249E-05 -.734E-06
   -.200E+02 -.436E-04 -.284E-04   0.209E+02 0.115E-04 0.395E-04   -.914E+00 -.138E-18 -.141E-18   -.111E-03 -.250E-05 -.148E-05
   -.200E+02 -.414E-04 -.244E-04   0.209E+02 -.414E-05 0.470E-05   -.914E+00 -.162E-18 -.288E-19   -.111E-03 0.249E-05 -.734E-06
   0.200E+02 -.427E-04 -.488E-04   -.209E+02 -.140E-05 -.183E-04   0.914E+00 0.132E-18 -.904E-19   0.111E-03 0.344E-05 0.786E-06
   0.200E+02 -.443E-04 -.447E-04   -.209E+02 0.152E-04 -.419E-04   0.914E+00 0.279E-18 -.144E-18   0.111E-03 -.344E-05 0.146E-05
   0.200E+02 -.427E-04 -.488E-04   -.209E+02 -.140E-05 -.183E-04   0.914E+00 0.151E-18 0.420E-20   0.108E-03 0.344E-05 0.786E-06
   0.200E+02 -.443E-04 -.447E-04   -.209E+02 0.152E-04 -.419E-04   0.914E+00 0.263E-18 0.759E-19   0.108E-03 -.344E-05 0.146E-05
   0.200E+02 -.468E-04 -.578E-04   -.209E+02 -.385E-05 0.115E-04   0.914E+00 0.245E-18 0.720E-19   0.109E-03 0.344E-05 -.772E-06
   0.200E+02 -.484E-04 -.618E-04   -.209E+02 0.128E-04 0.351E-04   0.914E+00 0.159E-18 -.579E-19   0.109E-03 -.344E-05 -.144E-05
   0.200E+02 -.468E-04 -.578E-04   -.209E+02 -.385E-05 0.115E-04   0.914E+00 0.297E-18 0.467E-19   0.111E-03 0.344E-05 -.772E-06
   0.200E+02 -.484E-04 -.618E-04   -.209E+02 0.128E-04 0.351E-04   0.914E+00 0.181E-18 0.235E-19   0.111E-03 -.344E-05 -.144E-05
   -.200E+02 -.500E-04 -.114E-04   0.209E+02 0.140E-04 -.462E-04   -.914E+00 -.242E-18 0.152E-18   -.108E-03 -.250E-05 0.149E-05
   -.200E+02 -.478E-04 -.153E-04   0.209E+02 -.169E-05 -.115E-04   -.914E+00 -.166E-18 0.107E-18   -.108E-03 0.249E-05 0.749E-06
   -.200E+02 -.500E-04 -.114E-04   0.209E+02 0.140E-04 -.462E-04   -.914E+00 -.257E-18 0.442E-19   -.111E-03 -.250E-05 0.149E-05
   -.200E+02 -.478E-04 -.153E-04   0.209E+02 -.169E-05 -.115E-04   -.914E+00 -.169E-18 0.110E-18   -.111E-03 0.249E-05 0.749E-06
 -----------------------------------------------------------------------------------------------
   0.499E-02 -.238E-02 -.783E-03   0.220E-12 0.118E-13 -.679E-13   0.444E-15 0.933E-14 -.666E-15   0.157E-06 -.350E-07 0.345E-08


 POSITION                                       TOTAL-FORCE (eV/Angst)
 -----------------------------------------------------------------------------------
      1.21393      0.15535      2.74299         0.003457     -0.007745      0.005972
      1.21393      5.10352      2.74299         0.003457     -0.007745      0.005972
      6.02537      0.15535      2.74299         0.003457     -0.007745      0.005972
      6.02537      5.10352      2.74299         0.003457     -0.007745      0.005972
      1.21393      2.31874      4.29053         0.003457      0.007745     -0.005972
      1.21393      7.26691      4.29053         0.003457      0.007745     -0.005972
      6.02537      2.31874      4.29053         0.003457      0.007745     -0.005972
      6.02537      7.26691      4.29053         0.003457      0.007745     -0.005972
      1.19179      2.62943      0.77377        -0.003457     -0.007745     -0.005972
      1.19179      7.57760      0.77377        -0.003457     -0.007745     -0.005972
      6.00322      2.62943      0.77377        -0.003457     -0.007745     -0.005972
      6.00322      7.57760      0.77377        -0.003457     -0.007745     -0.005972
      1.19179      4.79283      6.25975        -0.003457      0.007745      0.005972
      1.19179      9.74100      6.25975        -0.003457      0.007745      0.005972
      6.00322      4.79283      6.25975        -0.003457      0.007745      0.005972
      6.00322      9.74100      6.25975        -0.003457      0.007745      0.005972
      3.59751      4.79283      4.29053        -0.003457      0.007745     -0.005972
      3.59751      9.74100      4.29053        -0.003457      0.007745     -0.005972
      8.40894      4.79283      4.29053        -0.003457      0.007745     -0.005972
      8.40894      9.74100      4.29053        -0.003457      0.007745     -0.005972
      3.59751      2.62943      2.74299        -0.003457     -0.007745      0.005972
      3.59751      7.57760      2.74299        -0.003457     -0.007745      0.005972
      8.40894      2.62943      2.74299        -0.003457     -0.007745      0.005972
      8.40894      7.57760      2.74299        -0.003457     -0.007745      0.005972
      3.61965      2.31874      6.25975         0.003457      0.007745      0.005972
      3.61965      7.26691      6.25975         0.003457      0.007745      0.005972
      8.43109      2.31874      6.25975         0.003457      0.007745      0.005972
      8.43109      7.26691      6.25975         0.003457      0.007745      0.005972
      3.61965      0.15535      0.77377         0.003457     -0.007745     -0.005972
      3.61965      5.10352      0.77377         0.003457     -0.007745     -0.005972
      8.43109      0.15535      0.77377         0.003457     -0.007745     -0.005972
      8.43109      5.10352      0.77377         0.003457     -0.007745     -0.005972
      0.51517      0.50665      4.60096        -0.002981     -0.001774     -0.003866
      0.51517      5.45482      4.60096        -0.002981     -0.001774     -0.003866
      5.32661      0.50665      4.60096        -0.002981     -0.001774     -0.003866
      5.32661      5.45482      4.60096        -0.002981     -0.001774     -0.003866
      0.51517      1.96744      2.43255        -0.002981      0.001774      0.003866
      0.51517      6.91561      2.43255        -0.002981      0.001774      0.003866
      5.32661      1.96744      2.43255        -0.002981      0.001774      0.003866
      5.32661      6.91561      2.43255        -0.002981      0.001774      0.003866
      1.89055      2.98073      5.94931         0.002981     -0.001774      0.003866
      1.89055      7.92891      5.94931         0.002981     -0.001774      0.003866
      6.70198      2.98073      5.94931         0.002981     -0.001774      0.003866
      6.70198      7.92891      5.94931         0.002981     -0.001774      0.003866
      1.89055      4.44152      1.08421         0.002981      0.001774     -0.003866
      1.89055      9.38969      1.08421         0.002981      0.001774     -0.003866
      6.70198      4.44152      1.08421         0.002981      0.001774     -0.003866
      6.70198      9.38969      1.08421         0.002981      0.001774     -0.003866
      4.29626      4.44152      2.43255         0.002981      0.001774      0.003866
      4.29626      9.38969      2.43255         0.002981      0.001774      0.003866
      9.10770      4.44152      2.43255         0.002981      0.001774      0.003866
      9.10770      9.38969      2.43255         0.002981      0.001774      0.003866
      4.29626      2.98073      4.60096         0.002981     -0.001774     -0.003866
      4.29626      7.92891      4.60096         0.002981     -0.001774     -0.003866
      9.10770      2.98073      4.60096         0.002981     -0.001774     -0.003866
      9.10770      7.92891      4.60096         0.002981     -0.001774     -0.003866
      2.92089      1.96744      1.08421        -0.002981      0.001774     -0.003866
      2.92089      6.91561      1.08421        -0.002981      0.001774     -0.003866
      7.73233      1.96744      1.08421        -0.002981      0.001774     -0.003866
      7.73233      6.91561      1.08421        -0.002981      0.001774     -0.003866
      2.92089      0.50665      5.94931        -0.002981     -0.001774      0.003866
      2.92089      5.45482      5.94931        -0.002981     -0.001774      0.003866
      7.73233      0.50665      5.94931        -0.002981     -0.001774      0.003866
      7.73233      5.45482      5.94931        -0.002981     -0.001774      0.003866
      0.24148      1.23704      0.00000        -0.005222      0.000000     -0.000000
      0.24148      6.18521      0.00000        -0.005222      0.000000     -0.000000
      5.05291      1.23704      0.00000        -0.005222      0.000000     -0.000000
      5.05291      6.18521      0.00000        -0.005222      0.000000     -0.000000
      2.16424      3.71113      3.51676         0.005222      0.000000     -0.000000
      2.16424      8.65930      3.51676         0.005222      0.000000     -0.000000
      6.97568      3.71113      3.51676         0.005222      0.000000     -0.000000
      6.97568      8.65930      3.51676         0.005222      0.000000     -0.000000
      4.56996      3.71113      0.00000         0.005222      0.000000     -0.000000
      4.56996      8.65930      0.00000         0.005222      0.000000     -0.000000
      9.38140      3.71113      0.00000         0.005222      0.000000     -0.000000
      9.38140      8.65930      0.00000         0.005222      0.000000     -0.000000
      2.64720      1.23704      3.51676        -0.005222      0.000000     -0.000000
      2.64720      6.18521      3.51676        -0.005222      0.000000     -0.000000
      7.45863      1.23704      3.51676        -0.005222      0.000000     -0.000000
      7.45863      6.18521      3.51676        -0.005222      0.000000     -0.000000
 -----------------------------------------------------------------------------------
    total drift:                                0.004988     -0.002383     -0.000783


--------------------------------------------------------------------------------------------------------



  FREE ENERGIE OF THE ION-ELECTRON SYSTEM (eV)
  ---------------------------------------------------
  free  energy   TOTEN  =      -591.88021529 eV

  energy  without entropy=     -591.88081458  energy(sigma->0) =     -591.88041505



--------------------------------------------------------------------------------------------------------


    POTLOK:  cpu time      0.3265: real time      0.3429


--------------------------------------------------------------------------------------------------------


 writing wavefunctions
     LOOP+:  cpu time    676.7471: real time    680.2962
    4ORBIT:  cpu time      0.0000: real time      0.0000

 total amount of memory used by VASP MPI-rank0   485899. kBytes
=======================================================================

   base      :      30000. kBytes
   nonlr-proj:       8457. kBytes
   fftplans  :      23216. kBytes
   grid      :      41250. kBytes
   one-center:        245. kBytes
   wavefun   :     382731. kBytes

  
  
 General timing and accounting informations for this job:
 ========================================================
  
                  Total CPU time used (sec):      684.822
                            User time (sec):      682.430
                          System time (sec):        2.392
                         Elapsed time (sec):      688.450
  
                   Maximum memory used (kb):      666876.
                   Average memory used (kb):          N/A
  
                          Minor page faults:       292372
                          Major page faults:            2
                 Voluntary context switches:          721
