 vasp.6.1.0 28Jan20 (build Mar 09 2020 14:40:17) complex                        
  
 executed on             LinuxIFC date 2024.01.18  14:58:03
 running on    1 total cores
 distrk:  each k-point on    1 cores,    1 groups
 distr:  one band on NCORE=   1 cores,    1 groups


--------------------------------------------------------------------------------------------------------


 INCAR:
 POTCAR:    PAW_PBE Al 04Jan2001                  
 POTCAR:    PAW_PBE O 08Apr2002                   
 POTCAR:    PAW_PBE Al 04Jan2001                  
   SHA256 =  17880443556af62b473fe41b62a467bd001ad55d2cabe504a3f22e34d4e9db96 Al/POTCAR             
   COPYR  = (c) Copyright 04Jan2001 Georg Kresse                                                    
   COPYR  = This file is part of the software VASP. Any use, copying, and all other rights are regul
   COPYR  = If you do not have a valid VASP license, you may not use, copy or distribute this file. 
   VRHFIN =Al: s2p1                                                                                 
   LEXCH  = PE                                                                                      
   EATOM  =    53.5387 eV,    3.9350 Ry                                                             
                                                                                                    
   TITEL  = PAW_PBE Al 04Jan2001                                                                    
   LULTRA =        F    use ultrasoft PP ?                                                          
   IUNSCR =        1    unscreen: 0-lin 1-nonlin 2-no                                               
   RPACOR =    1.500    partial core radius                                                         
   POMASS =   26.981; ZVAL   =    3.000    mass and valenz                                          
   RCORE  =    1.900    outmost cutoff radius                                                       
   RWIGS  =    2.650; RWIGS  =    1.402    wigner-seitz radius (au A)                               
   ENMAX  =  240.300; ENMIN  =  180.225 eV                                                          
   ICORE  =        2    local potential                                                             
   LCOR   =        T    correct aug charges                                                         
   LPAW   =        T    paw PP                                                                      
   EAUG   =  291.052                                                                                
   DEXC   =    0.000                                                                                
   RMAX   =    1.939    core radius for proj-oper                                                   
   RAUG   =    1.300    factor for augmentation sphere                                              
   RDEP   =    1.966    radius for radial grids                                                     
   RDEPT  =    1.856    core radius for aug-charge                                                  
                                                                                                    
   Atomic configuration                                                                             
    6 entries                                                                                       
     n  l   j            E        occ.                                                              
     1  0  0.50     -1511.1048   2.0000                                                             
     2  0  0.50      -108.1629   2.0000                                                             
     2  1  1.50       -69.6402   6.0000                                                             
     3  0  0.50        -7.7528   2.0000                                                             
     3  1  1.50        -2.7121   1.0000                                                             
     3  2  2.50        -2.7212   0.0000                                                             
   Description                                                                                      
     l       E           TYP  RCUT    TYP  RCUT                                                     
     0     -7.7528455     23  1.900                                                                 
     0     -3.3096929     23  1.900                                                                 
     1     -2.7120682     23  1.900                                                                 
     1     13.6058260     23  1.900                                                                 
     2     -2.7211652      7  1.900                                                                 
  local pseudopotential read in
  partial core-charges read in
  partial kinetic energy density read in
  atomic valenz-charges read in
  non local Contribution for L=           0  read in
    real space projection operators read in
  non local Contribution for L=           0  read in
    real space projection operators read in
  non local Contribution for L=           1  read in
    real space projection operators read in
  non local Contribution for L=           1  read in
    real space projection operators read in
    PAW grid and wavefunctions read in
 
   number of l-projection  operators is LMAX  =           4
   number of lm-projection operators is LMMAX =           8
 
 POTCAR:    PAW_PBE O 08Apr2002                   
   SHA256 =  818f92134a0a090dccd8ba1447fa70422a3b330e708bb4f08108d8ae51209ddf O/POTCAR              
   COPYR  = (c) Copyright 08Apr2002 Georg Kresse                                                    
   COPYR  = This file is part of the software VASP. Any use, copying, and all other rights are regul
   COPYR  = If you do not have a valid VASP license, you may not use, copy or distribute this file. 
   VRHFIN =O: s2p4                                                                                  
   LEXCH  = PE                                                                                      
   EATOM  =   432.3788 eV,   31.7789 Ry                                                             
                                                                                                    
   TITEL  = PAW_PBE O 08Apr2002                                                                     
   LULTRA =        F    use ultrasoft PP ?                                                          
   IUNSCR =        1    unscreen: 0-lin 1-nonlin 2-no                                               
   RPACOR =    1.200    partial core radius                                                         
   POMASS =   16.000; ZVAL   =    6.000    mass and valenz                                          
   RCORE  =    1.520    outmost cutoff radius                                                       
   RWIGS  =    1.550; RWIGS  =    0.820    wigner-seitz radius (au A)                               
   ENMAX  =  400.000; ENMIN  =  300.000 eV                                                          
   ICORE  =        2    local potential                                                             
   LCOR   =        T    correct aug charges                                                         
   LPAW   =        T    paw PP                                                                      
   EAUG   =  605.392                                                                                
   DEXC   =    0.000                                                                                
   RMAX   =    1.553    core radius for proj-oper                                                   
   RAUG   =    1.300    factor for augmentation sphere                                              
   RDEP   =    1.550    radius for radial grids                                                     
   RDEPT  =    1.329    core radius for aug-charge                                                  
                                                                                                    
   Atomic configuration                                                                             
    4 entries                                                                                       
     n  l   j            E        occ.                                                              
     1  0  0.50      -514.6923   2.0000                                                             
     2  0  0.50       -23.9615   2.0000                                                             
     2  1  0.50        -9.0305   4.0000                                                             
     3  2  1.50        -9.5241   0.0000                                                             
   Description                                                                                      
     l       E           TYP  RCUT    TYP  RCUT                                                     
     0    -23.9615318     23  1.200                                                                 
     0     -9.5240782     23  1.200                                                                 
     1     -9.0304911     23  1.520                                                                 
     1      8.1634956     23  1.520                                                                 
     2     -9.5240782      7  1.500                                                                 
  local pseudopotential read in
  partial core-charges read in
  partial kinetic energy density read in
  kinetic energy density of atom read in
  atomic valenz-charges read in
  non local Contribution for L=           0  read in
    real space projection operators read in
  non local Contribution for L=           0  read in
    real space projection operators read in
  non local Contribution for L=           1  read in
    real space projection operators read in
  non local Contribution for L=           1  read in
    real space projection operators read in
    PAW grid and wavefunctions read in
 
   number of l-projection  operators is LMAX  =           4
   number of lm-projection operators is LMMAX =           8
 
 Optimization of the real space projectors (new method)

 maximal supplied QI-value         = 19.84
 optimisation between [QCUT,QGAM] = [ 10.12, 20.44] = [ 28.68,116.96] Ry 
 Optimized for a Real-space Cutoff    1.23 Angstroem

   l    n(q)    QCUT    max X(q) W(low)/X(q) W(high)/X(q)  e(spline) 
   0      7    10.119   176.870    0.49E-04    0.18E-03    0.39E-07
   0      7    10.119   105.762    0.46E-04    0.18E-03    0.38E-07
   1      7    10.119    55.370    0.30E-03    0.37E-03    0.12E-06
   1      7    10.119    20.208    0.27E-03    0.35E-03    0.11E-06
 Optimization of the real space projectors (new method)

 maximal supplied QI-value         = 24.76
 optimisation between [QCUT,QGAM] = [ 10.15, 20.30] = [ 28.85,115.39] Ry 
 Optimized for a Real-space Cutoff    1.38 Angstroem

   l    n(q)    QCUT    max X(q) W(low)/X(q) W(high)/X(q)  e(spline) 
   0      8    10.150    20.381    0.22E-03    0.32E-03    0.29E-06
   0      8    10.150    15.268    0.23E-03    0.35E-03    0.30E-06
   1      8    10.150     5.964    0.46E-03    0.53E-03    0.21E-06
   1      8    10.150     5.382    0.38E-03    0.45E-03    0.19E-06
  PAW_PBE Al 04Jan2001                  :
 energy of atom  1       EATOM=  -53.5387
 kinetic energy error for atom=    0.0005 (will be added to EATOM!!)
  PAW_PBE O 08Apr2002                   :
 energy of atom  2       EATOM= -432.3788
 kinetic energy error for atom=    0.1156 (will be added to EATOM!!)
 
 
 POSCAR:    Al  O
  positions in direct lattice
  No initial velocities read in
 exchange correlation table for  LEXCH =        8
   RHO(1)=    0.500       N(1)  =     2000
   RHO(2)=  100.500       N(2)  =     4000

 VTST: version 3.2, (02/03/18)

 CHAIN: initializing optimizer
 
 OPT: Using VASP Dynamics algorithm
 CHAIN: Read ICHAIN            0
 
 POSCAR:    Al  O
  positions in direct lattice
  No initial velocities read in
 


--------------------------------------------------------------------------------------------------------


 ion  position               nearest neighbor table
   1  0.252  0.031  0.390-  18 1.85  13 1.88  12 1.91  20 1.95  10 1.97   9 2.02   2 2.66   5 2.86
                             5 2.89   8 3.11   8 3.11   3 3.16   3 3.16   2 3.18
   2  0.252  0.469  0.610-  18 1.85  14 1.88  11 1.91  20 1.95   9 1.97  10 2.02   1 2.66   6 2.86
                             6 2.89   7 3.11   7 3.11   4 3.16   4 3.16   1 3.18
   3  0.248  0.531  0.110-  17 1.85  15 1.88  10 1.91  19 1.95  12 1.97  11 2.02   4 2.66   7 2.86
                             7 2.89   6 3.11   6 3.11   1 3.16   1 3.16   4 3.18
   4  0.248  0.969  0.890-  17 1.85  16 1.88   9 1.91  19 1.95  11 1.97  12 2.02   3 2.66   8 2.86
                             8 2.89   5 3.11   5 3.11   2 3.16   2 3.16   3 3.18
   5  0.748  0.969  0.610-  20 1.85   9 1.88  16 1.91  18 1.95  14 1.97  13 2.02   6 2.66   1 2.86
                             1 2.89   4 3.11   4 3.11   7 3.16   7 3.16   6 3.18
   6  0.748  0.531  0.390-  20 1.85  10 1.88  15 1.91  18 1.95  13 1.97  14 2.02   5 2.66   2 2.86
                             2 2.89   3 3.11   3 3.11   8 3.16   8 3.16   5 3.18
   7  0.752  0.469  0.890-  19 1.85  11 1.88  14 1.91  17 1.95  16 1.97  15 2.02   8 2.66   3 2.86
                             3 2.89   2 3.11   2 3.11   5 3.16   5 3.16   8 3.18
   8  0.752  0.031  0.110-  19 1.85  12 1.88  13 1.91  17 1.95  15 1.97  16 2.02   7 2.66   4 2.86
                             4 2.89   1 3.11   1 3.11   6 3.16   6 3.16   7 3.18
   9  0.107  0.102  0.654-   5 1.88   4 1.91   2 1.97   1 2.02
  10  0.107  0.398  0.346-   6 1.88   3 1.91   1 1.97   2 2.02
  11  0.393  0.602  0.846-   7 1.88   2 1.91   4 1.97   3 2.02
  12  0.393  0.898  0.154-   8 1.88   1 1.91   3 1.97   4 2.02
  13  0.893  0.898  0.346-   1 1.88   8 1.91   6 1.97   5 2.02
  14  0.893  0.602  0.654-   2 1.88   7 1.91   5 1.97   6 2.02
  15  0.607  0.398  0.154-   3 1.88   6 1.91   8 1.97   7 2.02
  16  0.607  0.102  0.846-   4 1.88   5 1.91   7 1.97   8 2.02
  17  0.050  0.250  0.000-   3 1.85   4 1.85   8 1.95   7 1.95
  18  0.450  0.750  0.500-   1 1.85   2 1.85   6 1.95   5 1.95
  19  0.950  0.750  0.000-   8 1.85   7 1.85   3 1.95   4 1.95
  20  0.550  0.250  0.500-   6 1.85   5 1.85   2 1.95   1 1.95
 
  LATTYP: Found a simple orthorhombic cell.
 ALAT       =     4.8097495040
 B/A-ratio  =     1.0284415337
 C/A-ratio  =     1.4618613431
  
  Lattice vectors:
  
 A1 = (   4.8097495040,   0.0000000000,   0.0000000000)
 A2 = (   0.0000000000,   4.9465461564,   0.0000000000)
 A3 = (   0.0000000000,   0.0000000000,   7.0311868698)


Analysis of symmetry for initial positions (statically):
=====================================================================
 Subroutine PRICEL returns:
 Original cell was already a primitive cell.
 

 Routine SETGRP: Setting up the symmetry group for a 
 simple orthorhombic supercell.


 Subroutine GETGRP returns: Found  8 space group operations
 (whereof  2 operations were pure point group operations)
 out of a pool of  8 trial point group operations.


The static configuration has the point symmetry S_2 .
 The point group associated with its full space group is D_2h.


Analysis of symmetry for dynamics (positions and initial velocities):
=====================================================================
 Subroutine PRICEL returns:
 Original cell was already a primitive cell.
 

 Routine SETGRP: Setting up the symmetry group for a 
 simple orthorhombic supercell.


 Subroutine GETGRP returns: Found  8 space group operations
 (whereof  2 operations were pure point group operations)
 out of a pool of  8 trial point group operations.


The dynamic configuration has the point symmetry S_2 .
 The point group associated with its full space group is D_2h.


Analysis of constrained symmetry for selective dynamics:
=====================================================================
 Subroutine PRICEL returns:
 Original cell was already a primitive cell.
 

 Routine SETGRP: Setting up the symmetry group for a 
 simple orthorhombic supercell.


 Subroutine GETGRP returns: Found  8 space group operations
 (whereof  2 operations were pure point group operations)
 out of a pool of  8 trial point group operations.


The constrained configuration has the point symmetry S_2 .
 The point group associated with its full space group is D_2h.


 Subroutine INISYM returns: Found  8 space group operations
 (whereof  2 operations are pure point group operations),
 and found     1 'primitive' translations


----------------------------------------------------------------------------------------

                                     Primitive cell                                     

  volume of cell :     167.2835

  direct lattice vectors                    reciprocal lattice vectors
     4.809749504  0.000000000  0.000000000     0.207911036  0.000000000  0.000000000
     0.000000000  4.946546156  0.000000000     0.000000000  0.202161259  0.000000000
     0.000000000  0.000000000  7.031186870     0.000000000  0.000000000  0.142223499

  length of vectors
     4.809749504  4.946546156  7.031186870     0.207911036  0.202161259  0.142223499

  position of ions in fractional coordinates (direct lattice)
     0.252300235  0.031396366  0.389988577
     0.252300235  0.468603632  0.610011423
     0.247699765  0.531396368  0.110011408
     0.247699765  0.968603632  0.889988577
     0.747699735  0.968603632  0.610011423
     0.747699735  0.531396368  0.389988577
     0.752300265  0.468603632  0.889988577
     0.752300265  0.031396366  0.110011408
     0.107072754  0.102389751  0.654147657
     0.107072754  0.397610242  0.345852343
     0.392927238  0.602389729  0.845852343
     0.392927238  0.897610271  0.154147642
     0.892927268  0.897610271  0.345852343
     0.892927268  0.602389729  0.654147657
     0.607072732  0.397610242  0.154147642
     0.607072732  0.102389751  0.845852343
     0.050188369  0.250000000  0.000000000
     0.449811635  0.750000000  0.500000000
     0.949811605  0.750000000  0.000000000
     0.550188395  0.250000000  0.500000000

  ion indices of the primitive-cell ions
   primitive index   ion index
                 1           1
                 2           2
                 3           3
                 4           4
                 5           5
                 6           6
                 7           7
                 8           8
                 9           9
                10          10
                11          11
                12          12
                13          13
                14          14
                15          15
                16          16
                17          17
                18          18
                19          19
                20          20

----------------------------------------------------------------------------------------

 
 
 KPOINTS: k-points                                

Automatic generation of k-mesh.
Space group operators:
 irot       det(A)        alpha          n_x          n_y          n_z        tau_x        tau_y        tau_z
    1     1.000000     0.000000     1.000000     0.000000     0.000000     0.000000     0.000000     0.000000
    2    -1.000000     0.000000     1.000000     0.000000     0.000000     0.000000     0.000000     0.000000
    3     1.000000   180.000000     0.000000     0.000000     1.000000    -0.500000     0.000000    -0.500000
    4    -1.000000   180.000000     0.000000     0.000000     1.000000     0.500000     0.000000     0.500000
    5     1.000000   180.000000     0.000000     1.000000     0.000000    -0.500000    -0.500000     0.500000
    6    -1.000000   180.000000     0.000000     1.000000     0.000000     0.500000     0.500000    -0.500000
    7     1.000000   180.000000     1.000000     0.000000     0.000000     0.000000     0.500000     0.000000
    8    -1.000000   180.000000     1.000000     0.000000     0.000000     0.000000    -0.500000     0.000000
 
 Subroutine IBZKPT returns following result:
 ===========================================
 
 Found      8 irreducible k-points:
 
 Following reciprocal coordinates:
            Coordinates               Weight
  0.125000  0.125000  0.125000      8.000000
  0.375000  0.125000  0.125000      8.000000
  0.125000  0.375000  0.125000      8.000000
  0.375000  0.375000  0.125000      8.000000
  0.125000  0.125000  0.375000      8.000000
  0.375000  0.125000  0.375000      8.000000
  0.125000  0.375000  0.375000      8.000000
  0.375000  0.375000  0.375000      8.000000
 
 Following cartesian coordinates:
            Coordinates               Weight
  0.025989  0.025270  0.017778      8.000000
  0.077967  0.025270  0.017778      8.000000
  0.025989  0.075810  0.017778      8.000000
  0.077967  0.075810  0.017778      8.000000
  0.025989  0.025270  0.053334      8.000000
  0.077967  0.025270  0.053334      8.000000
  0.025989  0.075810  0.053334      8.000000
  0.077967  0.075810  0.053334      8.000000
 


--------------------------------------------------------------------------------------------------------




 Dimension of arrays:
   k-points           NKPTS =      8   k-points in BZ     NKDIM =      8   number of bands    NBANDS=     59
   number of dos      NEDOS =    301   number of ions     NIONS =     20
   non local maximal  LDIM  =      4   non local SUM 2l+1 LMDIM =      8
   total plane-waves  NPLWV =  20736
   max r-space proj   IRMAX =   1416   max aug-charges    IRDMAX=   5023
   dimension x,y,z NGX =    24 NGY =   24 NGZ =   36
   dimension x,y,z NGXF=    48 NGYF=   48 NGZF=   72
   support grid    NGXF=    48 NGYF=   48 NGZF=   72
   ions per type =               8  12
   NGX,Y,Z   is equivalent  to a cutoff of   8.30,  8.07,  8.51 a.u.
   NGXF,Y,Z  is equivalent  to a cutoff of  16.59, 16.13, 17.02 a.u.

 SYSTEM =  Alumina_orthorombic_cell_under_strain   
 POSCAR =     Al  O                                

 Startparameter for this run:
   NWRITE =      2    write-flag & timer
   PREC   = normal    normal or accurate (medium, high low for compatibility)
   ISTART =      0    job   : 0-new  1-cont  2-samecut
   ICHARG =      2    charge: 1-file 2-atom 10-const
   ISPIN  =      1    spin polarized calculation?
   LNONCOLLINEAR =      F non collinear calculations
   LSORBIT =      F    spin-orbit coupling
   INIWAV =      1    electr: 0-lowe 1-rand  2-diag
   LASPH  =      F    aspherical Exc in radial PAW
   METAGGA=      F    non-selfconsistent MetaGGA calc.

 Electronic Relaxation 1
   ENCUT  =  400.0 eV  29.40 Ry    5.42 a.u.   7.84  8.07 11.47*2*pi/ulx,y,z
   ENINI  =  400.0     initial cutoff
   ENAUG  =  605.4 eV  augmentation charge cutoff
   NELM   =    100;   NELMIN=  2; NELMDL= -5     # of ELM steps 
   EDIFF  = 0.1E-05   stopping-criterion for ELM
   LREAL  =      T    real-space projection
   NLSPLINE    = F    spline interpolate recip. space projectors
   LCOMPAT=      F    compatible to vasp.4.4
   GGA_COMPAT  = T    GGA compatible to vasp.4.4-vasp.4.6
   LMAXPAW     = -100 max onsite density
   LMAXMIX     =    2 max onsite mixed and CHGCAR
   VOSKOWN=      0    Vosko Wilk Nusair interpolation
   ROPT   =   -0.00050  -0.00050
 Ionic relaxation
   EDIFFG = -.1E-02   stopping-criterion for IOM
   NSW    =      0    number of steps for IOM
   NBLOCK =      1;   KBLOCK =      1    inner block; outer block 
   IBRION =     -1    ionic relax: 0-MD 1-quasi-New 2-CG
   NFREE  =      0    steps in history (QN), initial steepest desc. (CG)
   ISIF   =      2    stress and relaxation
   IWAVPR =     10    prediction:  0-non 1-charg 2-wave 3-comb
   ISYM   =      2    0-nonsym 1-usesym 2-fastsym
   LCORR  =      T    Harris-Foulkes like correction to forces

   POTIM  = 0.5000    time-step for ionic-motion
   TEIN   =    0.0    initial temperature
   TEBEG  =    0.0;   TEEND  =   0.0 temperature during run
   SMASS  =  -3.00    Nose mass-parameter (am)
   estimated Nose-frequenzy (Omega)   =  0.10E-29 period in steps = 0.13E+47 mass=  -0.529E-27a.u.
   SCALEE = 1.0000    scale energy and forces
   NPACO  =    256;   APACO  = 16.0  distance and # of slots for P.C.
   PSTRESS=    0.0 pullay stress

  Mass of Ions in am
   POMASS =  26.98 16.00
  Ionic Valenz
   ZVAL   =   3.00  6.00
  Atomic Wigner-Seitz radii
   RWIGS  =  -1.00 -1.00
  virtual crystal weights 
   VCA    =   1.00  1.00
   NELECT =      96.0000    total number of electrons
   NUPDOWN=      -1.0000    fix difference up-down

 DOS related values:
   EMIN   =  10.00;   EMAX   =-10.00  energy-range for DOS
   EFERMI =   0.00
   ISMEAR =     1;   SIGMA  =   0.03  broadening in eV -4-tet -1-fermi 0-gaus

 Electronic relaxation 2 (details)
   IALGO  =     38    algorithm
   LDIAG  =      T    sub-space diagonalisation (order eigenvalues)
   LSUBROT=      F    optimize rotation matrix (better conditioning)
   TURBO    =      0    0=normal 1=particle mesh
   IRESTART =      0    0=no restart 2=restart with 2 vectors
   NREBOOT  =      0    no. of reboots
   NMIN     =      0    reboot dimension
   EREF     =   0.00    reference energy to select bands
   IMIX   =      4    mixing-type and parameters
     AMIX     =   0.40;   BMIX     =  1.00
     AMIX_MAG =   1.60;   BMIX_MAG =  1.00
     AMIN     =   0.10
     WC   =   100.;   INIMIX=   1;  MIXPRE=   1;  MAXMIX= -45

 Intra band minimization:
   WEIMIN = 0.0000     energy-eigenvalue tresh-hold
   EBREAK =  0.42E-08  absolut break condition
   DEPER  =   0.30     relativ break condition  

   TIME   =   0.40     timestep for ELM

  volume/ion in A,a.u.               =       8.36        56.44
  Fermi-wavevector in a.u.,A,eV,Ry     =   1.360445  2.570867 25.181791  1.850809
  Thomas-Fermi vector in A             =   2.487106
 
 Write flags
   LWAVE        =      T    write WAVECAR
   LDOWNSAMPLE  =      F    k-point downsampling of WAVECAR
   LCHARG       =      T    write CHGCAR
   LVTOT        =      F    write LOCPOT, total local potential
   LVHAR        =      F    write LOCPOT, Hartree potential only
   LELF         =      F    write electronic localiz. function (ELF)
   LORBIT       =      0    0 simple, 1 ext, 2 COOP (PROOUT), +10 PAW based schemes


 Dipole corrections
   LMONO  =      F    monopole corrections only (constant potential shift)
   LDIPOL =      F    correct potential (dipole corrections)
   IDIPOL =      0    1-x, 2-y, 3-z, 4-all directions 
   EPSILON=  1.0000000 bulk dielectric constant

 Exchange correlation treatment:
   GGA     =    --    GGA type
   LEXCH   =     8    internal setting for exchange type
   VOSKOWN=      0    Vosko Wilk Nusair interpolation
   LHFCALC =     F    Hartree Fock is set to
   LHFONE  =     F    Hartree Fock one center treatment
   AEXX    =    0.0000 exact exchange contribution

 Linear response parameters
   LEPSILON=     F    determine dielectric tensor
   LRPA    =     F    only Hartree local field effects (RPA)
   LNABLA  =     F    use nabla operator in PAW spheres
   LVEL    =     F    velocity operator in full k-point grid
   LINTERFAST=   F  fast interpolation
   KINTER  =     0    interpolate to denser k-point grid
   CSHIFT  =0.1000    complex shift for real part using Kramers Kronig
   OMEGAMAX=  -1.0    maximum frequency
   DEG_THRESHOLD= 0.2000000E-02 threshold for treating states as degnerate
   RTIME   =   -0.100 relaxation time in fs
  (WPLASMAI=    0.000 imaginary part of plasma frequency in eV, 0.658/RTIME)
   DFIELD  = 0.0000000 0.0000000 0.0000000 field for delta impulse in time
 
 Orbital magnetization related:
   ORBITALMAG=     F  switch on orbital magnetization
   LCHIMAG   =     F  perturbation theory with respect to B field
   DQ        =  0.001000  dq finite difference perturbation B field
   LLRAUG    =     F  two centre corrections for induced B field



--------------------------------------------------------------------------------------------------------


 Static calculation
 charge density and potential will be updated during run
 non-spin polarized calculation
 Variant of blocked Davidson
 Davidson routine will perform the subspace rotation
 perform sub-space diagonalisation
    after iterative eigenvector-optimisation
 modified Broyden-mixing scheme, WC =      100.0
 initial mixing is a Kerker type mixing with AMIX =  0.4000 and BMIX =      1.0000
 Hartree-type preconditioning will be used
 using additional bands           11
 real space projection scheme for non local part
 use partial core corrections
 calculate Harris-corrections to forces 
   (improved forces if not selfconsistent)
 use gradient corrections 
 use of overlap-Matrix (Vanderbilt PP)
 Methfessel and Paxton  Order N= 1 SIGMA  =   0.03


--------------------------------------------------------------------------------------------------------


  energy-cutoff  :      400.00
  volume of cell :      167.28
      direct lattice vectors                 reciprocal lattice vectors
     4.809749504  0.000000000  0.000000000     0.207911036  0.000000000  0.000000000
     0.000000000  4.946546156  0.000000000     0.000000000  0.202161259  0.000000000
     0.000000000  0.000000000  7.031186870     0.000000000  0.000000000  0.142223499

  length of vectors
     4.809749504  4.946546156  7.031186870     0.207911036  0.202161259  0.142223499


 
 k-points in units of 2pi/SCALE and weight: k-points                                
   0.02598888  0.02527016  0.01777794       0.125
   0.07796664  0.02527016  0.01777794       0.125
   0.02598888  0.07581047  0.01777794       0.125
   0.07796664  0.07581047  0.01777794       0.125
   0.02598888  0.02527016  0.05333381       0.125
   0.07796664  0.02527016  0.05333381       0.125
   0.02598888  0.07581047  0.05333381       0.125
   0.07796664  0.07581047  0.05333381       0.125
 
 k-points in reciprocal lattice and weights: k-points                                
   0.12500000  0.12500000  0.12500000       0.125
   0.37500000  0.12500000  0.12500000       0.125
   0.12500000  0.37500000  0.12500000       0.125
   0.37500000  0.37500000  0.12500000       0.125
   0.12500000  0.12500000  0.37500000       0.125
   0.37500000  0.12500000  0.37500000       0.125
   0.12500000  0.37500000  0.37500000       0.125
   0.37500000  0.37500000  0.37500000       0.125
 
 position of ions in fractional coordinates (direct lattice) 
   0.25230024  0.03139637  0.38998858
   0.25230024  0.46860363  0.61001142
   0.24769976  0.53139637  0.11001141
   0.24769976  0.96860363  0.88998858
   0.74769973  0.96860363  0.61001142
   0.74769973  0.53139637  0.38998858
   0.75230027  0.46860363  0.88998858
   0.75230027  0.03139637  0.11001141
   0.10707275  0.10238975  0.65414766
   0.10707275  0.39761024  0.34585234
   0.39292724  0.60238973  0.84585234
   0.39292724  0.89761027  0.15414764
   0.89292727  0.89761027  0.34585234
   0.89292727  0.60238973  0.65414766
   0.60707273  0.39761024  0.15414764
   0.60707273  0.10238975  0.84585234
   0.05018837  0.25000000  0.00000000
   0.44981163  0.75000000  0.50000000
   0.94981160  0.75000000  0.00000000
   0.55018840  0.25000000  0.50000000
 
 position of ions in cartesian coordinates  (Angst):
   1.21350093  0.15530357  2.74208256
   1.21350093  2.31796950  4.28910431
   1.19137382  2.62857666  0.77351077
   1.19137382  4.79124257  6.25767600
   3.59624843  4.79124257  4.28910431
   3.59624843  2.62857666  2.74208256
   3.61837583  2.31796950  6.25767600
   3.61837583  0.15530357  0.77351077
   0.51499313  0.50647563  4.59943441
   0.51499313  1.96679741  2.43175246
   1.88988159  2.97974860  5.94734589
   1.88988159  4.44007064  1.08384087
   4.29475649  4.44007064  2.43175246
   4.29475649  2.97974860  4.59943441
   2.91986777  1.96679741  1.08384087
   2.91986777  0.50647563  5.94734589
   0.24139348  1.23663654  0.00000000
   2.16348129  3.70990962  3.51559343
   4.56835590  3.70990962  0.00000000
   2.64626836  1.23663654  3.51559343
 


--------------------------------------------------------------------------------------------------------


 k-point   1 :   0.1250 0.1250 0.1250  plane waves:    3024
 k-point   2 :   0.3750 0.1250 0.1250  plane waves:    3038
 k-point   3 :   0.1250 0.3750 0.1250  plane waves:    3038
 k-point   4 :   0.3750 0.3750 0.1250  plane waves:    3055
 k-point   5 :   0.1250 0.1250 0.3750  plane waves:    3031
 k-point   6 :   0.3750 0.1250 0.3750  plane waves:    3033
 k-point   7 :   0.1250 0.3750 0.3750  plane waves:    3034
 k-point   8 :   0.3750 0.3750 0.3750  plane waves:    3042

 maximum and minimum number of plane-waves per node :      3055     3024

 maximum number of plane-waves:      3055
 maximum index in each direction: 
   IXMAX=    7   IYMAX=    7   IZMAX=   11
   IXMIN=   -8   IYMIN=   -8   IZMIN=  -11


 serial   3D FFT for wavefunctions
 parallel 3D FFT for charge:
    minimum data exchange during FFTs selected (reduces bandwidth)


 total amount of memory used by VASP MPI-rank0    72573. kBytes
=======================================================================

   base      :      30000. kBytes
   nonlr-proj:       2117. kBytes
   fftplans  :       5804. kBytes
   grid      :      10312. kBytes
   one-center:         61. kBytes
   wavefun   :      24279. kBytes
 
     INWAV:  cpu time    0.0001: real time    0.0004
 Broyden mixing: mesh for mixing (old mesh)
   NGX = 15   NGY = 17   NGZ = 23
  (NGX  = 48   NGY  = 48   NGZ  = 72)
  gives a total of   5865 points

 initial charge density was supplied:
 charge density of overlapping atoms calculated
 number of electron      96.0000000 magnetization 
 keeping initial charge density in first step


--------------------------------------------------------------------------------------------------------


 Maximum index for non-local projection operator         1336
 Maximum index for augmentation-charges         4679 (set IRDMAX)


--------------------------------------------------------------------------------------------------------


 First call to EWALD:  gamma=   0.322
 Maximum number of real-space cells 3x 3x 2
 Maximum number of reciprocal cells 2x 3x 3

    FEWALD:  cpu time    0.0028: real time    0.0028


--------------------------------------- Iteration      1(   1)  ---------------------------------------


    POTLOK:  cpu time    0.0711: real time    0.0749
    SETDIJ:  cpu time    0.0198: real time    0.0198
     EDDAV:  cpu time    1.6467: real time    1.6468
       DOS:  cpu time    0.0011: real time    0.0011
    --------------------------------------------
      LOOP:  cpu time    1.7387: real time    1.7426

 eigenvalue-minimisations  :   944
 total energy-change (2. order) : 0.4449074E+03  (-0.4468157E+04)
 number of electron      96.0000000 magnetization 
 augmentation part       96.0000000 magnetization 

 Free energy of the ion-electron system (eV)
  ---------------------------------------------------
  alpha Z        PSCENC =       154.34514909
  Ewald energy   TEWEN  =     -4865.75029008
  -Hartree energ DENC   =     -1234.14873711
  -exchange      EXHF   =         0.00000000
  -V(xc)+E(xc)   XCENC  =       133.37276254
  PAW double counting   =      4688.19497969    -4454.14273673
  entropy T*S    EENTRO =         0.00095577
  eigenvalues    EBANDS =       407.57168138
  atomic energy  EATOM  =      5615.46358700
  Solvation  Ediel_sol  =         0.00000000
  ---------------------------------------------------
  free energy    TOTEN  =       444.90735155 eV

  energy without entropy =      444.90639578  energy(sigma->0) =      444.90703296


--------------------------------------------------------------------------------------------------------




--------------------------------------- Iteration      1(   2)  ---------------------------------------


     EDDAV:  cpu time    1.9292: real time    1.9297
       DOS:  cpu time    0.0010: real time    0.0010
    --------------------------------------------
      LOOP:  cpu time    1.9302: real time    1.9307

 eigenvalue-minimisations  :  1144
 total energy-change (2. order) :-0.5813007E+03  (-0.5684208E+03)
 number of electron      96.0000000 magnetization 
 augmentation part       96.0000000 magnetization 

 Free energy of the ion-electron system (eV)
  ---------------------------------------------------
  alpha Z        PSCENC =       154.34514909
  Ewald energy   TEWEN  =     -4865.75029008
  -Hartree energ DENC   =     -1234.14873711
  -exchange      EXHF   =         0.00000000
  -V(xc)+E(xc)   XCENC  =       133.37276254
  PAW double counting   =      4688.19497969    -4454.14273673
  entropy T*S    EENTRO =         0.00018848
  eigenvalues    EBANDS =      -173.72824580
  atomic energy  EATOM  =      5615.46358700
  Solvation  Ediel_sol  =         0.00000000
  ---------------------------------------------------
  free energy    TOTEN  =      -136.39334292 eV

  energy without entropy =     -136.39353140  energy(sigma->0) =     -136.39340575


--------------------------------------------------------------------------------------------------------




--------------------------------------- Iteration      1(   3)  ---------------------------------------


     EDDAV:  cpu time    1.9653: real time    1.9658
       DOS:  cpu time    0.0011: real time    0.0011
    --------------------------------------------
      LOOP:  cpu time    1.9664: real time    1.9669

 eigenvalue-minimisations  :  1120
 total energy-change (2. order) :-0.2731444E+02  (-0.2720054E+02)
 number of electron      96.0000000 magnetization 
 augmentation part       96.0000000 magnetization 

 Free energy of the ion-electron system (eV)
  ---------------------------------------------------
  alpha Z        PSCENC =       154.34514909
  Ewald energy   TEWEN  =     -4865.75029008
  -Hartree energ DENC   =     -1234.14873711
  -exchange      EXHF   =         0.00000000
  -V(xc)+E(xc)   XCENC  =       133.37276254
  PAW double counting   =      4688.19497969    -4454.14273673
  entropy T*S    EENTRO =         0.00024306
  eigenvalues    EBANDS =      -201.04273905
  atomic energy  EATOM  =      5615.46358700
  Solvation  Ediel_sol  =         0.00000000
  ---------------------------------------------------
  free energy    TOTEN  =      -163.70778158 eV

  energy without entropy =     -163.70802465  energy(sigma->0) =     -163.70786260


--------------------------------------------------------------------------------------------------------




--------------------------------------- Iteration      1(   4)  ---------------------------------------


     EDDAV:  cpu time    2.0637: real time    2.0648
       DOS:  cpu time    0.0010: real time    0.0010
    --------------------------------------------
      LOOP:  cpu time    2.0648: real time    2.0658

 eigenvalue-minimisations  :  1120
 total energy-change (2. order) :-0.2689426E+00  (-0.2683316E+00)
 number of electron      96.0000000 magnetization 
 augmentation part       96.0000000 magnetization 

 Free energy of the ion-electron system (eV)
  ---------------------------------------------------
  alpha Z        PSCENC =       154.34514909
  Ewald energy   TEWEN  =     -4865.75029008
  -Hartree energ DENC   =     -1234.14873711
  -exchange      EXHF   =         0.00000000
  -V(xc)+E(xc)   XCENC  =       133.37276254
  PAW double counting   =      4688.19497969    -4454.14273673
  entropy T*S    EENTRO =         0.00026465
  eigenvalues    EBANDS =      -201.31170320
  atomic energy  EATOM  =      5615.46358700
  Solvation  Ediel_sol  =         0.00000000
  ---------------------------------------------------
  free energy    TOTEN  =      -163.97672414 eV

  energy without entropy =     -163.97698880  energy(sigma->0) =     -163.97681236


--------------------------------------------------------------------------------------------------------




--------------------------------------- Iteration      1(   5)  ---------------------------------------


     EDDAV:  cpu time    2.0205: real time    2.0211
       DOS:  cpu time    0.0010: real time    0.0010
    CHARGE:  cpu time    0.1214: real time    0.1215
    MIXING:  cpu time    0.0026: real time    0.0026
    --------------------------------------------
      LOOP:  cpu time    2.1455: real time    2.1461

 eigenvalue-minimisations  :  1096
 total energy-change (2. order) :-0.4453830E-02  (-0.4449893E-02)
 number of electron      96.0000370 magnetization 
 augmentation part        9.3190157 magnetization 

 Broyden mixing:
  rms(total) = 0.24405E+01    rms(broyden)= 0.24396E+01
  rms(prec ) = 0.38242E+01
  weight for this iteration     100.00

 Free energy of the ion-electron system (eV)
  ---------------------------------------------------
  alpha Z        PSCENC =       154.34514909
  Ewald energy   TEWEN  =     -4865.75029008
  -Hartree energ DENC   =     -1234.14873711
  -exchange      EXHF   =         0.00000000
  -V(xc)+E(xc)   XCENC  =       133.37276254
  PAW double counting   =      4688.19497969    -4454.14273673
  entropy T*S    EENTRO =         0.00026524
  eigenvalues    EBANDS =      -201.31615762
  atomic energy  EATOM  =      5615.46358700
  Solvation  Ediel_sol  =         0.00000000
  ---------------------------------------------------
  free energy    TOTEN  =      -163.98117797 eV

  energy without entropy =     -163.98144322  energy(sigma->0) =     -163.98126639


--------------------------------------------------------------------------------------------------------




--------------------------------------- Iteration      1(   6)  ---------------------------------------


    POTLOK:  cpu time    0.0700: real time    0.0704
    SETDIJ:  cpu time    0.0199: real time    0.0199
     EDDAV:  cpu time    1.9553: real time    1.9571
       DOS:  cpu time    0.0012: real time    0.0012
    CHARGE:  cpu time    0.1218: real time    0.1218
    MIXING:  cpu time    0.0030: real time    0.0030
    --------------------------------------------
      LOOP:  cpu time    2.1711: real time    2.1733

 eigenvalue-minimisations  :  1053
 total energy-change (2. order) : 0.1602580E+02  (-0.6810196E+01)
 number of electron      96.0000317 magnetization 
 augmentation part        7.8910666 magnetization 

 Broyden mixing:
  rms(total) = 0.85023E+00    rms(broyden)= 0.84898E+00
  rms(prec ) = 0.10333E+01
  weight for this iteration     100.00

 eigenvalues of (default mixing * dielectric matrix)
  average eigenvalue GAMMA=   0.9617
  0.9617

 Free energy of the ion-electron system (eV)
  ---------------------------------------------------
  alpha Z        PSCENC =       154.34514909
  Ewald energy   TEWEN  =     -4865.75029008
  -Hartree energ DENC   =     -1419.96191783
  -exchange      EXHF   =         0.00000000
  -V(xc)+E(xc)   XCENC  =       146.49022259
  PAW double counting   =      6044.47250673    -5813.98470721
  entropy T*S    EENTRO =         0.00018850
  eigenvalues    EBANDS =        -9.03011304
  atomic energy  EATOM  =      5615.46358700
  Solvation  Ediel_sol  =         0.00000000
  ---------------------------------------------------
  free energy    TOTEN  =      -147.95537426 eV

  energy without entropy =     -147.95556276  energy(sigma->0) =     -147.95543709


--------------------------------------------------------------------------------------------------------




--------------------------------------- Iteration      1(   7)  ---------------------------------------


    POTLOK:  cpu time    0.0692: real time    0.0695
    SETDIJ:  cpu time    0.0199: real time    0.0199
     EDDAV:  cpu time    2.1036: real time    2.1038
       DOS:  cpu time    0.0010: real time    0.0010
    CHARGE:  cpu time    0.1196: real time    0.1196
    MIXING:  cpu time    0.0029: real time    0.0029
    --------------------------------------------
      LOOP:  cpu time    2.3163: real time    2.3168

 eigenvalue-minimisations  :  1160
 total energy-change (2. order) : 0.1166357E-01  (-0.1445520E+00)
 number of electron      96.0000316 magnetization 
 augmentation part        7.7976822 magnetization 

 Broyden mixing:
  rms(total) = 0.46503E+00    rms(broyden)= 0.46493E+00
  rms(prec ) = 0.57660E+00
  weight for this iteration     100.00

 eigenvalues of (default mixing * dielectric matrix)
  average eigenvalue GAMMA=   1.3184
  1.1865  1.4504

 Free energy of the ion-electron system (eV)
  ---------------------------------------------------
  alpha Z        PSCENC =       154.34514909
  Ewald energy   TEWEN  =     -4865.75029008
  -Hartree energ DENC   =     -1436.50206401
  -exchange      EXHF   =         0.00000000
  -V(xc)+E(xc)   XCENC  =       147.90710048
  PAW double counting   =      7081.47684497    -6850.84469042
  entropy T*S    EENTRO =         0.00018853
  eigenvalues    EBANDS =         5.96046376
  atomic energy  EATOM  =      5615.46358700
  Solvation  Ediel_sol  =         0.00000000
  ---------------------------------------------------
  free energy    TOTEN  =      -147.94371069 eV

  energy without entropy =     -147.94389922  energy(sigma->0) =     -147.94377353


--------------------------------------------------------------------------------------------------------




--------------------------------------- Iteration      1(   8)  ---------------------------------------


    POTLOK:  cpu time    0.0651: real time    0.0654
    SETDIJ:  cpu time    0.0198: real time    0.0198
     EDDAV:  cpu time    1.9879: real time    1.9881
       DOS:  cpu time    0.0011: real time    0.0011
    CHARGE:  cpu time    0.1197: real time    0.1197
    MIXING:  cpu time    0.0031: real time    0.0031
    --------------------------------------------
      LOOP:  cpu time    2.1967: real time    2.1973

 eigenvalue-minimisations  :  1088
 total energy-change (2. order) :-0.1723973E-02  (-0.1239300E-01)
 number of electron      96.0000317 magnetization 
 augmentation part        7.8220567 magnetization 

 Broyden mixing:
  rms(total) = 0.12922E+00    rms(broyden)= 0.12922E+00
  rms(prec ) = 0.17299E+00
  weight for this iteration     100.00

 eigenvalues of (default mixing * dielectric matrix)
  average eigenvalue GAMMA=   1.5664
  2.5362  1.0814  1.0814

 Free energy of the ion-electron system (eV)
  ---------------------------------------------------
  alpha Z        PSCENC =       154.34514909
  Ewald energy   TEWEN  =     -4865.75029008
  -Hartree energ DENC   =     -1441.81437999
  -exchange      EXHF   =         0.00000000
  -V(xc)+E(xc)   XCENC  =       148.63728022
  PAW double counting   =      7912.21502654    -7681.38547321
  entropy T*S    EENTRO =         0.00018860
  eigenvalues    EBANDS =        10.34347717
  atomic energy  EATOM  =      5615.46358700
  Solvation  Ediel_sol  =         0.00000000
  ---------------------------------------------------
  free energy    TOTEN  =      -147.94543466 eV

  energy without entropy =     -147.94562326  energy(sigma->0) =     -147.94549753


--------------------------------------------------------------------------------------------------------




--------------------------------------- Iteration      1(   9)  ---------------------------------------


    POTLOK:  cpu time    0.0652: real time    0.0655
    SETDIJ:  cpu time    0.0198: real time    0.0198
     EDDAV:  cpu time    2.0338: real time    2.0340
       DOS:  cpu time    0.0010: real time    0.0010
    CHARGE:  cpu time    0.1195: real time    0.1195
    MIXING:  cpu time    0.0032: real time    0.0032
    --------------------------------------------
      LOOP:  cpu time    2.2425: real time    2.2430

 eigenvalue-minimisations  :  1120
 total energy-change (2. order) :-0.1072844E-01  (-0.3311788E-02)
 number of electron      96.0000317 magnetization 
 augmentation part        7.8051637 magnetization 

 Broyden mixing:
  rms(total) = 0.37510E-01    rms(broyden)= 0.37504E-01
  rms(prec ) = 0.39474E-01
  weight for this iteration     100.00

 eigenvalues of (default mixing * dielectric matrix)
  average eigenvalue GAMMA=   1.7865
  1.0278  1.0278  2.5452  2.5452

 Free energy of the ion-electron system (eV)
  ---------------------------------------------------
  alpha Z        PSCENC =       154.34514909
  Ewald energy   TEWEN  =     -4865.75029008
  -Hartree energ DENC   =     -1448.65104791
  -exchange      EXHF   =         0.00000000
  -V(xc)+E(xc)   XCENC  =       149.30953659
  PAW double counting   =      8216.14292913    -7985.32353676
  entropy T*S    EENTRO =         0.00018863
  eigenvalues    EBANDS =        16.50732120
  atomic energy  EATOM  =      5615.46358700
  Solvation  Ediel_sol  =         0.00000000
  ---------------------------------------------------
  free energy    TOTEN  =      -147.95616310 eV

  energy without entropy =     -147.95635174  energy(sigma->0) =     -147.95622598


--------------------------------------------------------------------------------------------------------




--------------------------------------- Iteration      1(  10)  ---------------------------------------


    POTLOK:  cpu time    0.0651: real time    0.0655
    SETDIJ:  cpu time    0.0199: real time    0.0199
     EDDAV:  cpu time    2.0388: real time    2.0390
       DOS:  cpu time    0.0011: real time    0.0011
    CHARGE:  cpu time    0.1219: real time    0.1219
    MIXING:  cpu time    0.0037: real time    0.0037
    --------------------------------------------
      LOOP:  cpu time    2.2505: real time    2.2511

 eigenvalue-minimisations  :  1120
 total energy-change (2. order) :-0.1499284E-02  (-0.5108526E-03)
 number of electron      96.0000317 magnetization 
 augmentation part        7.7999596 magnetization 

 Broyden mixing:
  rms(total) = 0.13480E-01    rms(broyden)= 0.13470E-01
  rms(prec ) = 0.18910E-01
  weight for this iteration     100.00

 eigenvalues of (default mixing * dielectric matrix)
  average eigenvalue GAMMA=   1.5399
  2.6510  2.3500  1.0114  1.0114  0.6755

 Free energy of the ion-electron system (eV)
  ---------------------------------------------------
  alpha Z        PSCENC =       154.34514909
  Ewald energy   TEWEN  =     -4865.75029008
  -Hartree energ DENC   =     -1449.27825372
  -exchange      EXHF   =         0.00000000
  -V(xc)+E(xc)   XCENC  =       149.36916312
  PAW double counting   =      8095.89112263    -7865.09477217
  entropy T*S    EENTRO =         0.00018864
  eigenvalues    EBANDS =        17.09644310
  atomic energy  EATOM  =      5615.46358700
  Solvation  Ediel_sol  =         0.00000000
  ---------------------------------------------------
  free energy    TOTEN  =      -147.95766239 eV

  energy without entropy =     -147.95785103  energy(sigma->0) =     -147.95772527


--------------------------------------------------------------------------------------------------------




--------------------------------------- Iteration      1(  11)  ---------------------------------------


    POTLOK:  cpu time    0.0685: real time    0.0690
    SETDIJ:  cpu time    0.0199: real time    0.0199
     EDDAV:  cpu time    2.0370: real time    2.0374
       DOS:  cpu time    0.0010: real time    0.0010
    CHARGE:  cpu time    0.1194: real time    0.1194
    MIXING:  cpu time    0.0035: real time    0.0035
    --------------------------------------------
      LOOP:  cpu time    2.2493: real time    2.2502

 eigenvalue-minimisations  :  1120
 total energy-change (2. order) : 0.2671493E-03  (-0.9835807E-04)
 number of electron      96.0000317 magnetization 
 augmentation part        7.8035861 magnetization 

 Broyden mixing:
  rms(total) = 0.89971E-02    rms(broyden)= 0.89960E-02
  rms(prec ) = 0.10676E-01
  weight for this iteration     100.00

 eigenvalues of (default mixing * dielectric matrix)
  average eigenvalue GAMMA=   1.5673
  2.8063  2.4720  1.0229  1.0229  1.0399  1.0399

 Free energy of the ion-electron system (eV)
  ---------------------------------------------------
  alpha Z        PSCENC =       154.34514909
  Ewald energy   TEWEN  =     -4865.75029008
  -Hartree energ DENC   =     -1448.96984920
  -exchange      EXHF   =         0.00000000
  -V(xc)+E(xc)   XCENC  =       149.34845631
  PAW double counting   =      8100.27992100    -7869.47482222
  entropy T*S    EENTRO =         0.00018864
  eigenvalues    EBANDS =        16.80026423
  atomic energy  EATOM  =      5615.46358700
  Solvation  Ediel_sol  =         0.00000000
  ---------------------------------------------------
  free energy    TOTEN  =      -147.95739524 eV

  energy without entropy =     -147.95758388  energy(sigma->0) =     -147.95745812


--------------------------------------------------------------------------------------------------------




--------------------------------------- Iteration      1(  12)  ---------------------------------------


    POTLOK:  cpu time    0.0649: real time    0.0653
    SETDIJ:  cpu time    0.0198: real time    0.0198
     EDDAV:  cpu time    2.0332: real time    2.0334
       DOS:  cpu time    0.0010: real time    0.0010
    CHARGE:  cpu time    0.1195: real time    0.1195
    MIXING:  cpu time    0.0037: real time    0.0037
    --------------------------------------------
      LOOP:  cpu time    2.2421: real time    2.2427

 eigenvalue-minimisations  :  1120
 total energy-change (2. order) :-0.1311409E-04  (-0.5538728E-04)
 number of electron      96.0000317 magnetization 
 augmentation part        7.8040788 magnetization 

 Broyden mixing:
  rms(total) = 0.24166E-02    rms(broyden)= 0.24082E-02
  rms(prec ) = 0.34038E-02
  weight for this iteration     100.00

 eigenvalues of (default mixing * dielectric matrix)
  average eigenvalue GAMMA=   1.5291
  2.8462  2.4550  1.2661  1.0650  1.0650  1.0030  1.0030

 Free energy of the ion-electron system (eV)
  ---------------------------------------------------
  alpha Z        PSCENC =       154.34514909
  Ewald energy   TEWEN  =     -4865.75029008
  -Hartree energ DENC   =     -1448.95436369
  -exchange      EXHF   =         0.00000000
  -V(xc)+E(xc)   XCENC  =       149.34842917
  PAW double counting   =      8078.11088692    -7847.30846790
  entropy T*S    EENTRO =         0.00018863
  eigenvalues    EBANDS =        16.78747250
  atomic energy  EATOM  =      5615.46358700
  Solvation  Ediel_sol  =         0.00000000
  ---------------------------------------------------
  free energy    TOTEN  =      -147.95740835 eV

  energy without entropy =     -147.95759699  energy(sigma->0) =     -147.95747123


--------------------------------------------------------------------------------------------------------




--------------------------------------- Iteration      1(  13)  ---------------------------------------


    POTLOK:  cpu time    0.0651: real time    0.0655
    SETDIJ:  cpu time    0.0198: real time    0.0198
     EDDAV:  cpu time    2.0052: real time    2.0053
       DOS:  cpu time    0.0011: real time    0.0011
    CHARGE:  cpu time    0.1194: real time    0.1194
    MIXING:  cpu time    0.0039: real time    0.0039
    --------------------------------------------
      LOOP:  cpu time    2.2145: real time    2.2150

 eigenvalue-minimisations  :  1104
 total energy-change (2. order) : 0.7158711E-05  (-0.9788624E-05)
 number of electron      96.0000317 magnetization 
 augmentation part        7.8054077 magnetization 

 Broyden mixing:
  rms(total) = 0.10704E-02    rms(broyden)= 0.10687E-02
  rms(prec ) = 0.14095E-02
  weight for this iteration     100.00

 eigenvalues of (default mixing * dielectric matrix)
  average eigenvalue GAMMA=   1.5080
  2.8417  2.4323  1.8295  1.0391  1.0391  0.8623  1.0102  1.0102

 Free energy of the ion-electron system (eV)
  ---------------------------------------------------
  alpha Z        PSCENC =       154.34514909
  Ewald energy   TEWEN  =     -4865.75029008
  -Hartree energ DENC   =     -1448.79408376
  -exchange      EXHF   =         0.00000000
  -V(xc)+E(xc)   XCENC  =       149.33700709
  PAW double counting   =      8076.97714974    -7846.17018174
  entropy T*S    EENTRO =         0.00018864
  eigenvalues    EBANDS =        16.63407284
  atomic energy  EATOM  =      5615.46358700
  Solvation  Ediel_sol  =         0.00000000
  ---------------------------------------------------
  free energy    TOTEN  =      -147.95740119 eV

  energy without entropy =     -147.95758983  energy(sigma->0) =     -147.95746407


--------------------------------------------------------------------------------------------------------




--------------------------------------- Iteration      1(  14)  ---------------------------------------


    POTLOK:  cpu time    0.0653: real time    0.0657
    SETDIJ:  cpu time    0.0198: real time    0.0198
     EDDAV:  cpu time    2.0313: real time    2.0316
       DOS:  cpu time    0.0010: real time    0.0010
    CHARGE:  cpu time    0.1195: real time    0.1195
    MIXING:  cpu time    0.0041: real time    0.0041
    --------------------------------------------
      LOOP:  cpu time    2.2411: real time    2.2417

 eigenvalue-minimisations  :  1120
 total energy-change (2. order) : 0.1212121E-05  (-0.1230119E-05)
 number of electron      96.0000317 magnetization 
 augmentation part        7.8050264 magnetization 

 Broyden mixing:
  rms(total) = 0.36088E-03    rms(broyden)= 0.36036E-03
  rms(prec ) = 0.43748E-03
  weight for this iteration     100.00

 eigenvalues of (default mixing * dielectric matrix)
  average eigenvalue GAMMA=   1.5303
  2.9104  2.5379  2.2170  0.9889  0.9889  1.0473  1.0473  1.0585  0.9765

 Free energy of the ion-electron system (eV)
  ---------------------------------------------------
  alpha Z        PSCENC =       154.34514909
  Ewald energy   TEWEN  =     -4865.75029008
  -Hartree energ DENC   =     -1448.83943161
  -exchange      EXHF   =         0.00000000
  -V(xc)+E(xc)   XCENC  =       149.33961191
  PAW double counting   =      8076.20165188    -7845.39521226
  entropy T*S    EENTRO =         0.00018863
  eigenvalues    EBANDS =        16.67734546
  atomic energy  EATOM  =      5615.46358700
  Solvation  Ediel_sol  =         0.00000000
  ---------------------------------------------------
  free energy    TOTEN  =      -147.95739998 eV

  energy without entropy =     -147.95758862  energy(sigma->0) =     -147.95746286


--------------------------------------------------------------------------------------------------------




--------------------------------------- Iteration      1(  15)  ---------------------------------------


    POTLOK:  cpu time    0.0653: real time    0.0655
    SETDIJ:  cpu time    0.0198: real time    0.0198
     EDDAV:  cpu time    1.4428: real time    1.4430
       DOS:  cpu time    0.0011: real time    0.0011
    --------------------------------------------
      LOOP:  cpu time    1.5290: real time    1.5294

 eigenvalue-minimisations  :   696
 total energy-change (2. order) : 0.8637289E-07  (-0.3856097E-07)
 number of electron      96.0000317 magnetization 
 augmentation part        7.8050264 magnetization 

 Free energy of the ion-electron system (eV)
  ---------------------------------------------------
  alpha Z        PSCENC =       154.34514909
  Ewald energy   TEWEN  =     -4865.75029008
  -Hartree energ DENC   =     -1448.84854471
  -exchange      EXHF   =         0.00000000
  -V(xc)+E(xc)   XCENC  =       149.33996557
  PAW double counting   =      8075.38487531    -7844.57820235
  entropy T*S    EENTRO =         0.00018863
  eigenvalues    EBANDS =        16.68587164
  atomic energy  EATOM  =      5615.46358700
  Solvation  Ediel_sol  =         0.00000000
  ---------------------------------------------------
  free energy    TOTEN  =      -147.95739990 eV

  energy without entropy =     -147.95758853  energy(sigma->0) =     -147.95746277


--------------------------------------------------------------------------------------------------------




 average (electrostatic) potential at core
  the test charge radii are     1.0406  0.7215
  (the norm of the test charge is              1.0000)
       1 -71.2356       2 -71.2356       3 -71.2356       4 -71.2356       5 -71.2356
       6 -71.2356       7 -71.2356       8 -71.2356       9 -66.7809      10 -66.7809
      11 -66.7809      12 -66.7809      13 -66.7809      14 -66.7809      15 -66.7809
      16 -66.7809      17 -66.6488      18 -66.6488      19 -66.6488      20 -66.6488
 
 
 
 E-fermi :   6.5608     XC(G=0): -11.8403     alpha+bet :-17.1104


 k-point     1 :       0.1250    0.1250    0.1250
  band No.  band energies     occupation 
      1     -12.6514      2.00000
      2     -11.6504      2.00000
      3     -10.8010      2.00000
      4     -10.7525      2.00000
      5     -10.6924      2.00000
      6     -10.3380      2.00000
      7     -10.1643      2.00000
      8     -10.0020      2.00000
      9      -9.9585      2.00000
     10      -9.8976      2.00000
     11      -9.7757      2.00000
     12      -9.5612      2.00000
     13       0.1861      2.00000
     14       0.3719      2.00000
     15       0.4333      2.00000
     16       0.5780      2.00000
     17       1.1122      2.00000
     18       1.2279      2.00000
     19       1.2651      2.00000
     20       1.5586      2.00000
     21       1.7448      2.00000
     22       2.1150      2.00000
     23       2.1904      2.00000
     24       2.4242      2.00000
     25       2.4728      2.00000
     26       2.8788      2.00000
     27       3.4622      2.00000
     28       3.6749      2.00000
     29       3.8802      2.00000
     30       4.1874      2.00000
     31       4.2379      2.00000
     32       4.5150      2.00000
     33       4.5573      2.00000
     34       4.8734      2.00000
     35       5.0612      2.00000
     36       5.2410      2.00000
     37       5.3575      2.00000
     38       5.3612      2.00000
     39       5.4771      2.00000
     40       5.6450      2.00000
     41       5.7503      2.00000
     42       5.8214      2.00000
     43       5.8987      2.00000
     44       6.0582      2.00000
     45       6.1605      2.00000
     46       6.2359      2.00000
     47       6.3983      2.00000
     48       6.5389      1.99998
     49      12.7877      0.00000
     50      15.1754      0.00000
     51      15.3465      0.00000
     52      15.6996      0.00000
     53      15.9345      0.00000
     54      16.5841      0.00000
     55      16.8046      0.00000
     56      16.8938      0.00000
     57      17.1872      0.00000
     58      17.3868      0.00000
     59      17.6378      0.00000

 k-point     2 :       0.3750    0.1250    0.1250
  band No.  band energies     occupation 
      1     -12.2288      2.00000
      2     -11.5322      2.00000
      3     -11.2717      2.00000
      4     -10.8487      2.00000
      5     -10.5423      2.00000
      6     -10.4315      2.00000
      7     -10.2655      2.00000
      8     -10.1231      2.00000
      9     -10.0550      2.00000
     10      -9.8927      2.00000
     11      -9.7013      2.00000
     12      -9.5836      2.00000
     13       0.1392      2.00000
     14       0.3942      2.00000
     15       0.5102      2.00000
     16       0.7835      2.00000
     17       0.8776      2.00000
     18       1.1742      2.00000
     19       1.3299      2.00000
     20       1.3808      2.00000
     21       1.7141      2.00000
     22       2.2749      2.00000
     23       2.4671      2.00000
     24       2.7425      2.00000
     25       2.8397      2.00000
     26       3.3058      2.00000
     27       3.6716      2.00000
     28       3.8162      2.00000
     29       4.0932      2.00000
     30       4.1214      2.00000
     31       4.2200      2.00000
     32       4.3610      2.00000
     33       4.5339      2.00000
     34       4.7759      2.00000
     35       4.8824      2.00000
     36       5.0653      2.00000
     37       5.1580      2.00000
     38       5.3238      2.00000
     39       5.4093      2.00000
     40       5.5676      2.00000
     41       5.7349      2.00000
     42       5.8060      2.00000
     43       5.8887      2.00000
     44       5.9197      2.00000
     45       6.0651      2.00000
     46       6.0772      2.00000
     47       6.4393      2.00000
     48       6.4520      2.00000
     49      14.1010      0.00000
     50      15.0573      0.00000
     51      15.1500      0.00000
     52      15.5037      0.00000
     53      15.6964      0.00000
     54      16.0733      0.00000
     55      16.4022      0.00000
     56      16.8772      0.00000
     57      17.0815      0.00000
     58      17.1840      0.00000
     59      17.2418      0.00000

 k-point     3 :       0.1250    0.3750    0.1250
  band No.  band energies     occupation 
      1     -12.2464      2.00000
      2     -11.5413      2.00000
      3     -11.3061      2.00000
      4     -10.7577      2.00000
      5     -10.5383      2.00000
      6     -10.4719      2.00000
      7     -10.2683      2.00000
      8     -10.1879      2.00000
      9      -9.9476      2.00000
     10      -9.8084      2.00000
     11      -9.7735      2.00000
     12      -9.6752      2.00000
     13       0.2978      2.00000
     14       0.4730      2.00000
     15       0.6244      2.00000
     16       0.8968      2.00000
     17       1.0215      2.00000
     18       1.3650      2.00000
     19       1.5827      2.00000
     20       1.8650      2.00000
     21       2.0776      2.00000
     22       2.2716      2.00000
     23       2.3390      2.00000
     24       2.6827      2.00000
     25       2.8672      2.00000
     26       3.1350      2.00000
     27       3.3784      2.00000
     28       3.4514      2.00000
     29       3.8107      2.00000
     30       3.8548      2.00000
     31       3.9897      2.00000
     32       4.1102      2.00000
     33       4.5092      2.00000
     34       4.6742      2.00000
     35       4.8561      2.00000
     36       4.9968      2.00000
     37       5.0478      2.00000
     38       5.2247      2.00000
     39       5.2989      2.00000
     40       5.4230      2.00000
     41       5.5369      2.00000
     42       5.6042      2.00000
     43       5.8127      2.00000
     44       5.9567      2.00000
     45       6.1903      2.00000
     46       6.2873      2.00000
     47       6.4190      2.00000
     48       6.4737      2.00002
     49      14.0976      0.00000
     50      15.2446      0.00000
     51      15.5706      0.00000
     52      15.6634      0.00000
     53      15.7261      0.00000
     54      15.9144      0.00000
     55      16.5181      0.00000
     56      16.8790      0.00000
     57      17.3348      0.00000
     58      17.5124      0.00000
     59      17.6638      0.00000

 k-point     4 :       0.3750    0.3750    0.1250
  band No.  band energies     occupation 
      1     -11.8571      2.00000
      2     -11.2350      2.00000
      3     -11.2276      2.00000
      4     -11.0298      2.00000
      5     -10.6165      2.00000
      6     -10.5231      2.00000
      7     -10.4727      2.00000
      8     -10.4093      2.00000
      9      -9.9506      2.00000
     10      -9.9024      2.00000
     11      -9.8642      2.00000
     12      -9.7288      2.00000
     13       0.5225      2.00000
     14       0.5922      2.00000
     15       0.6849      2.00000
     16       0.8991      2.00000
     17       1.2037      2.00000
     18       1.4436      2.00000
     19       1.7051      2.00000
     20       1.8759      2.00000
     21       2.0901      2.00000
     22       2.2994      2.00000
     23       2.4117      2.00000
     24       2.8668      2.00000
     25       3.0528      2.00000
     26       3.1398      2.00000
     27       3.3490      2.00000
     28       3.5465      2.00000
     29       3.6544      2.00000
     30       3.8555      2.00000
     31       4.0394      2.00000
     32       4.2489      2.00000
     33       4.4787      2.00000
     34       4.5861      2.00000
     35       4.9140      2.00000
     36       4.9313      2.00000
     37       5.0207      2.00000
     38       5.1537      2.00000
     39       5.2858      2.00000
     40       5.4151      2.00000
     41       5.4388      2.00000
     42       5.6383      2.00000
     43       5.7132      2.00000
     44       5.8046      2.00000
     45       6.0244      2.00000
     46       6.2202      2.00000
     47       6.3531      2.00000
     48       6.4173      2.00000
     49      14.9427      0.00000
     50      15.2990      0.00000
     51      15.4335      0.00000
     52      15.6115      0.00000
     53      15.9726      0.00000
     54      16.1261      0.00000
     55      16.3250      0.00000
     56      16.4917      0.00000
     57      16.8708      0.00000
     58      17.0486      0.00000
     59      17.2060      0.00000

 k-point     5 :       0.1250    0.1250    0.3750
  band No.  band energies     occupation 
      1     -12.4513      2.00000
      2     -12.0828      2.00000
      3     -10.7148      2.00000
      4     -10.6323      2.00000
      5     -10.4805      2.00000
      6     -10.3638      2.00000
      7     -10.3189      2.00000
      8     -10.0194      2.00000
      9      -9.9020      2.00000
     10      -9.8280      2.00000
     11      -9.7913      2.00000
     12      -9.6444      2.00000
     13       0.1517      2.00000
     14       0.2807      2.00000
     15       0.5164      2.00000
     16       0.6371      2.00000
     17       0.8142      2.00000
     18       0.8868      2.00000
     19       1.3872      2.00000
     20       1.4779      2.00000
     21       1.8703      2.00000
     22       1.9716      2.00000
     23       2.2947      2.00000
     24       2.6183      2.00000
     25       2.8994      2.00000
     26       3.2705      2.00000
     27       3.5714      2.00000
     28       3.6501      2.00000
     29       3.8776      2.00000
     30       4.1405      2.00000
     31       4.1617      2.00000
     32       4.3509      2.00000
     33       4.5907      2.00000
     34       4.9240      2.00000
     35       5.0560      2.00000
     36       5.1933      2.00000
     37       5.2289      2.00000
     38       5.3101      2.00000
     39       5.3574      2.00000
     40       5.5067      2.00000
     41       5.6412      2.00000
     42       5.7264      2.00000
     43       5.8893      2.00000
     44       6.0867      2.00000
     45       6.2383      2.00000
     46       6.3228      2.00000
     47       6.4384      2.00000
     48       6.4519      2.00000
     49      13.4829      0.00000
     50      14.4409      0.00000
     51      15.7636      0.00000
     52      16.1799      0.00000
     53      16.2190      0.00000
     54      16.4403      0.00000
     55      16.6466      0.00000
     56      16.8194      0.00000
     57      16.9642      0.00000
     58      17.1192      0.00000
     59      17.5028      0.00000

 k-point     6 :       0.3750    0.1250    0.3750
  band No.  band energies     occupation 
      1     -12.0469      2.00000
      2     -11.7254      2.00000
      3     -11.3099      2.00000
      4     -11.0703      2.00000
      5     -10.4444      2.00000
      6     -10.3564      2.00000
      7     -10.2614      2.00000
      8     -10.1309      2.00000
      9      -9.9405      2.00000
     10      -9.8042      2.00000
     11      -9.7370      2.00000
     12      -9.6192      2.00000
     13       0.0581      2.00000
     14       0.2079      2.00000
     15       0.3043      2.00000
     16       0.3452      2.00000
     17       1.0836      2.00000
     18       1.3597      2.00000
     19       1.4757      2.00000
     20       1.5649      2.00000
     21       2.0206      2.00000
     22       2.3479      2.00000
     23       2.6107      2.00000
     24       2.8899      2.00000
     25       3.0367      2.00000
     26       3.1863      2.00000
     27       3.3572      2.00000
     28       3.7797      2.00000
     29       4.0156      2.00000
     30       4.0263      2.00000
     31       4.2056      2.00000
     32       4.4488      2.00000
     33       4.5628      2.00000
     34       4.7713      2.00000
     35       4.8466      2.00000
     36       5.0060      2.00000
     37       5.1043      2.00000
     38       5.2888      2.00000
     39       5.3373      2.00000
     40       5.4514      2.00000
     41       5.6217      2.00000
     42       5.7711      2.00000
     43       5.9728      2.00000
     44       6.0309      2.00000
     45       6.1793      2.00000
     46       6.2405      2.00000
     47       6.3381      2.00000
     48       6.3677      2.00000
     49      14.5240      0.00000
     50      14.9576      0.00000
     51      15.4840      0.00000
     52      15.6335      0.00000
     53      15.7387      0.00000
     54      16.1666      0.00000
     55      16.4248      0.00000
     56      16.6319      0.00000
     57      16.8720      0.00000
     58      17.0271      0.00000
     59      17.2886      0.00000

 k-point     7 :       0.1250    0.3750    0.3750
  band No.  band energies     occupation 
      1     -12.0588      2.00000
      2     -11.7131      2.00000
      3     -11.3838      2.00000
      4     -11.0957      2.00000
      5     -10.3869      2.00000
      6     -10.2320      2.00000
      7     -10.1891      2.00000
      8     -10.1121      2.00000
      9      -9.9108      2.00000
     10      -9.8738      2.00000
     11      -9.8387      2.00000
     12      -9.7034      2.00000
     13       0.3259      2.00000
     14       0.4044      2.00000
     15       0.6237      2.00000
     16       0.6476      2.00000
     17       1.1393      2.00000
     18       1.4139      2.00000
     19       1.4540      2.00000
     20       1.7861      2.00000
     21       1.9736      2.00000
     22       2.1135      2.00000
     23       2.5145      2.00000
     24       2.7169      2.00000
     25       2.8478      2.00000
     26       3.2787      2.00000
     27       3.5328      2.00000
     28       3.6082      2.00000
     29       3.8212      2.00000
     30       3.9244      2.00000
     31       4.2443      2.00000
     32       4.4119      2.00000
     33       4.5049      2.00000
     34       4.5601      2.00000
     35       4.6881      2.00000
     36       4.9208      2.00000
     37       5.0539      2.00000
     38       5.2155      2.00000
     39       5.2669      2.00000
     40       5.3433      2.00000
     41       5.5821      2.00000
     42       5.6467      2.00000
     43       5.7817      2.00000
     44       5.8496      2.00000
     45       6.1710      2.00000
     46       6.2309      2.00000
     47       6.3426      2.00000
     48       6.4005      2.00000
     49      14.4716      0.00000
     50      15.0614      0.00000
     51      15.5562      0.00000
     52      15.6406      0.00000
     53      15.9228      0.00000
     54      16.2463      0.00000
     55      16.4730      0.00000
     56      16.8517      0.00000
     57      16.9805      0.00000
     58      17.0610      0.00000
     59      17.3758      0.00000

 k-point     8 :       0.3750    0.3750    0.3750
  band No.  band energies     occupation 
      1     -11.6895      2.00000
      2     -11.3970      2.00000
      3     -11.1252      2.00000
      4     -11.0819      2.00000
      5     -10.7480      2.00000
      6     -10.7087      2.00000
      7     -10.5204      2.00000
      8     -10.3805      2.00000
      9      -9.8937      2.00000
     10      -9.8329      2.00000
     11      -9.7418      2.00000
     12      -9.6634      2.00000
     13       0.4448      2.00000
     14       0.4791      2.00000
     15       0.6769      2.00000
     16       0.7308      2.00000
     17       1.3375      2.00000
     18       1.5368      2.00000
     19       1.5403      2.00000
     20       1.8765      2.00000
     21       2.2232      2.00000
     22       2.3161      2.00000
     23       2.6313      2.00000
     24       2.6780      2.00000
     25       2.8474      2.00000
     26       3.0677      2.00000
     27       3.3707      2.00000
     28       3.4187      2.00000
     29       3.9923      2.00000
     30       4.0345      2.00000
     31       4.1562      2.00000
     32       4.3439      2.00000
     33       4.6213      2.00000
     34       4.6611      2.00000
     35       4.8774      2.00000
     36       4.8951      2.00000
     37       4.9485      2.00000
     38       5.1426      2.00000
     39       5.1823      2.00000
     40       5.3721      2.00000
     41       5.5336      2.00000
     42       5.6203      2.00000
     43       5.8236      2.00000
     44       5.8828      2.00000
     45       5.9617      2.00000
     46       6.1448      2.00000
     47       6.2096      2.00000
     48       6.2829      2.00000
     49      15.1423      0.00000
     50      15.3492      0.00000
     51      15.4695      0.00000
     52      15.5531      0.00000
     53      15.8536      0.00000
     54      15.9344      0.00000
     55      16.4834      0.00000
     56      16.6121      0.00000
     57      16.8055      0.00000
     58      16.8548      0.00000
     59      17.0829      0.00000


--------------------------------------------------------------------------------------------------------


 soft charge-density along one line, spin component           1
         0         1         2         3         4         5         6         7         8         9
 total charge-density along one line
 
 pseudopotential strength for first ion, spin component:           1
  8.380  14.280   0.002  -0.001  -0.000   0.008  -0.003  -0.000
 14.280  24.334   0.004  -0.002  -0.000   0.013  -0.005  -0.000
  0.002   0.004   1.982  -0.000   0.000   5.706  -0.000   0.001
 -0.001  -0.002  -0.000   1.982  -0.000  -0.000   5.706  -0.001
 -0.000  -0.000   0.000  -0.000   1.982   0.001  -0.001   5.706
  0.008   0.013   5.706  -0.000   0.001  16.346  -0.001   0.002
 -0.003  -0.005  -0.000   5.706  -0.001  -0.001  16.347  -0.002
 -0.000  -0.000   0.001  -0.001   5.706   0.002  -0.002  16.346
 total augmentation occupancy for first ion, spin component:           1
  5.238  -1.890  -0.189   0.111   0.012   0.027  -0.020  -0.002
 -1.890   0.718   0.063  -0.058  -0.005  -0.009   0.009   0.001
 -0.189   0.063   1.543   0.053  -0.076  -0.149  -0.007   0.010
  0.111  -0.058   0.053   1.440   0.094  -0.008  -0.139  -0.011
  0.012  -0.005  -0.076   0.094   1.596   0.010  -0.011  -0.156
  0.027  -0.009  -0.149  -0.008   0.010   0.016   0.001  -0.001
 -0.020   0.009  -0.007  -0.139  -0.011   0.001   0.014   0.001
 -0.002   0.001   0.010  -0.011  -0.156  -0.001   0.001   0.017


------------------------ aborting loop because EDIFF is reached ----------------------------------------


    CHARGE:  cpu time    0.1197: real time    0.1198
    FORLOC:  cpu time    0.0195: real time    0.0195
    FORNL :  cpu time    0.5803: real time    0.5804
    STRESS:  cpu time    1.7591: real time    1.7593
    FORCOR:  cpu time    0.0868: real time    0.0868
    FORHAR:  cpu time    0.0311: real time    0.0311
    MIXING:  cpu time    0.0043: real time    0.0043
    OFIELD:  cpu time    0.0000: real time    0.0000

  FORCE on cell =-STRESS in cart. coord.  units (eV):
  Direction    XX          YY          ZZ          XY          YZ          ZX
  --------------------------------------------------------------------------------------
  Alpha Z   154.34515   154.34515   154.34515
  Ewald   -1578.63984 -1626.08566 -1661.03726    -0.00000     0.00000    -0.00000
  Hartree   486.46613   475.81589   486.57734     0.00000     0.00000    -0.00000
  E(xc)    -443.92205  -443.81761  -443.35762     0.00000    -0.00000    -0.00000
  Local    -271.37564  -215.41089  -197.20541    -0.00000    -0.00001     0.00000
  n-local  -175.53063  -177.45728  -183.28292     0.11397     0.10934     0.06505
  augment    76.13289    76.31402    77.10457     0.00000    -0.00000     0.00000
  Kinetic  1751.51192  1755.30178  1765.91042    -0.47574    -0.65255    -0.23665
  Fock        0.00000     0.00000     0.00000     0.00000     0.00000     0.00000
  -------------------------------------------------------------------------------------
  Total      -1.01207    -0.99461    -0.94574     0.00000     0.00000     0.00000
  in kB      -9.69323    -9.52598    -9.05797     0.00000     0.00000     0.00000
  external pressure =       -9.43 kB  Pullay stress =        0.00 kB


 VOLUME and BASIS-vectors are now :
 -----------------------------------------------------------------------------
  energy-cutoff  :      400.00
  volume of cell :      167.28
      direct lattice vectors                 reciprocal lattice vectors
     4.809749504  0.000000000  0.000000000     0.207911036  0.000000000  0.000000000
     0.000000000  4.946546156  0.000000000     0.000000000  0.202161259  0.000000000
     0.000000000  0.000000000  7.031186870     0.000000000  0.000000000  0.142223499

  length of vectors
     4.809749504  4.946546156  7.031186870     0.207911036  0.202161259  0.142223499


 FORCES acting on ions
    electron-ion (+dipol)            ewald-force                    non-local-force                 convergence-correction
 -----------------------------------------------------------------------------------------------
   0.338E+01 -.297E+01 0.165E+02   -.328E+01 0.703E+00 -.157E+02   -.102E+00 0.226E+01 -.777E+00   0.116E-03 -.195E-04 0.135E-03
   0.338E+01 0.297E+01 -.165E+02   -.328E+01 -.703E+00 0.157E+02   -.102E+00 -.226E+01 0.777E+00   0.116E-03 0.195E-04 -.135E-03
   -.338E+01 -.297E+01 -.165E+02   0.328E+01 0.703E+00 0.157E+02   0.102E+00 0.226E+01 0.777E+00   -.116E-03 -.196E-04 -.136E-03
   -.338E+01 0.297E+01 0.165E+02   0.328E+01 -.703E+00 -.157E+02   0.102E+00 -.226E+01 -.777E+00   -.116E-03 0.196E-04 0.135E-03
   -.338E+01 0.297E+01 -.165E+02   0.328E+01 -.703E+00 0.157E+02   0.102E+00 -.226E+01 0.777E+00   -.116E-03 0.196E-04 -.135E-03
   -.338E+01 -.297E+01 0.165E+02   0.328E+01 0.703E+00 -.157E+02   0.102E+00 0.226E+01 -.777E+00   -.116E-03 -.196E-04 0.135E-03
   0.338E+01 0.297E+01 0.165E+02   -.328E+01 -.703E+00 -.157E+02   -.102E+00 -.226E+01 -.777E+00   0.116E-03 0.195E-04 0.135E-03
   0.338E+01 -.297E+01 -.165E+02   -.328E+01 0.703E+00 0.157E+02   -.102E+00 0.226E+01 0.777E+00   0.116E-03 -.195E-04 -.136E-03
   0.673E+01 0.329E+01 -.184E+02   -.544E+01 -.259E+01 0.194E+02   -.129E+01 -.700E+00 -.982E+00   -.147E-03 0.322E-04 -.719E-03
   0.673E+01 -.329E+01 0.184E+02   -.544E+01 0.259E+01 -.194E+02   -.129E+01 0.700E+00 0.982E+00   -.147E-03 -.323E-04 0.720E-03
   -.673E+01 0.329E+01 0.184E+02   0.544E+01 -.259E+01 -.194E+02   0.129E+01 -.700E+00 0.982E+00   0.147E-03 0.320E-04 0.720E-03
   -.673E+01 -.329E+01 -.184E+02   0.544E+01 0.259E+01 0.194E+02   0.129E+01 0.700E+00 -.982E+00   0.147E-03 -.320E-04 -.721E-03
   -.673E+01 -.329E+01 0.184E+02   0.544E+01 0.259E+01 -.194E+02   0.129E+01 0.700E+00 0.982E+00   0.147E-03 -.319E-04 0.720E-03
   -.673E+01 0.329E+01 -.184E+02   0.544E+01 -.259E+01 0.194E+02   0.129E+01 -.700E+00 -.982E+00   0.147E-03 0.320E-04 -.719E-03
   0.673E+01 -.329E+01 -.184E+02   -.544E+01 0.259E+01 0.194E+02   -.129E+01 0.700E+00 -.982E+00   -.147E-03 -.323E-04 -.721E-03
   0.673E+01 0.329E+01 0.184E+02   -.544E+01 -.259E+01 -.194E+02   -.129E+01 -.700E+00 0.982E+00   -.147E-03 0.322E-04 0.720E-03
   -.200E+02 -.852E-05 -.613E-04   0.209E+02 -.931E-07 0.692E-05   -.916E+00 -.520E-17 -.173E-17   -.250E-03 -.174E-07 -.475E-06
   0.200E+02 -.104E-04 -.923E-04   -.209E+02 -.129E-05 -.157E-04   0.916E+00 0.000E+00 -.520E-17   0.250E-03 0.156E-07 0.500E-06
   0.200E+02 -.131E-04 -.949E-04   -.209E+02 -.307E-05 0.881E-05   0.916E+00 -.520E-17 0.173E-17   0.250E-03 0.157E-07 -.483E-06
   -.200E+02 -.163E-04 -.592E-04   0.209E+02 0.169E-05 -.138E-04   -.916E+00 0.000E+00 0.173E-17   -.250E-03 -.174E-07 0.493E-06
 -----------------------------------------------------------------------------------------------
   0.102E-02 -.757E-04 -.634E-03   -.711E-14 0.761E-14 0.249E-13   -.111E-15 0.323E-15 0.108E-15   0.123E-07 -.572E-09 -.177E-08
 
 
 POSITION                                       TOTAL-FORCE (eV/Angst)
 -----------------------------------------------------------------------------------
      1.21350      0.15530      2.74208         0.002122     -0.005352      0.003572
      1.21350      2.31797      4.28910         0.002122      0.005352     -0.003572
      1.19137      2.62858      0.77351        -0.002122     -0.005352     -0.003572
      1.19137      4.79124      6.25768        -0.002122      0.005352      0.003572
      3.59625      4.79124      4.28910        -0.002122      0.005352     -0.003572
      3.59625      2.62858      2.74208        -0.002122     -0.005352      0.003572
      3.61838      2.31797      6.25768         0.002122      0.005352      0.003572
      3.61838      0.15530      0.77351         0.002122     -0.005352     -0.003572
      0.51499      0.50648      4.59943        -0.001979     -0.001076     -0.002277
      0.51499      1.96680      2.43175        -0.001979      0.001076      0.002277
      1.88988      2.97975      5.94735         0.001979     -0.001076      0.002277
      1.88988      4.44007      1.08384         0.001979      0.001076     -0.002277
      4.29476      4.44007      2.43175         0.001979      0.001076      0.002277
      4.29476      2.97975      4.59943         0.001979     -0.001076     -0.002277
      2.91987      1.96680      1.08384        -0.001979      0.001076     -0.002277
      2.91987      0.50648      5.94735        -0.001979     -0.001076      0.002277
      0.24139      1.23664      0.00000        -0.004921     -0.000000     -0.000000
      2.16348      3.70991      3.51559         0.004921     -0.000000     -0.000000
      4.56836      3.70991      0.00000         0.004921     -0.000000     -0.000000
      2.64627      1.23664      3.51559        -0.004921     -0.000000     -0.000000
 -----------------------------------------------------------------------------------
    total drift:                                0.001020     -0.000076     -0.000634


--------------------------------------------------------------------------------------------------------



  FREE ENERGIE OF THE ION-ELECTRON SYSTEM (eV)
  ---------------------------------------------------
  free  energy   TOTEN  =      -147.95739990 eV

  energy  without entropy=     -147.95758853  energy(sigma->0) =     -147.95746277
 


--------------------------------------------------------------------------------------------------------


    POTLOK:  cpu time    0.0853: real time    0.0853


--------------------------------------------------------------------------------------------------------


 stress matrix after NEB project (eV)
     -1.01207      0.00000      0.00000
      0.00000     -0.99461      0.00000
      0.00000      0.00000     -0.94574
  FORCES: max atom, RMS     0.006775    0.005226
  FORCE total and by dimension    0.023370    0.005352
  Stress total and by dimension    1.705276    1.012071
 writing wavefunctions
     LOOP+:  cpu time   34.4463: real time   34.4676
    4ORBIT:  cpu time    0.0000: real time    0.0000

 total amount of memory used by VASP MPI-rank0    72573. kBytes
=======================================================================

   base      :      30000. kBytes
   nonlr-proj:       2117. kBytes
   fftplans  :       5804. kBytes
   grid      :      10312. kBytes
   one-center:         61. kBytes
   wavefun   :      24279. kBytes
 
  
  
 General timing and accounting informations for this job:
 ========================================================
  
                  Total CPU time used (sec):       35.899
                            User time (sec):       35.666
                          System time (sec):        0.233
                         Elapsed time (sec):       36.147
  
                   Maximum memory used (kb):      113428.
                   Average memory used (kb):           0.
  
                          Minor page faults:        50689
                          Major page faults:            0
                 Voluntary context switches:          689
