 vasp.6.3.0 20Jan22 (build Jul  1 2024 12:21:46) complex                         
 executed on             LinuxGNU date 2024.10.21  12:38:29
 running    1 mpi-ranks, with    1 threads/rank
 distrk:  each k-point on    1 cores,    1 groups
 distr:  one band on NCORE=   1 cores,    1 groups


--------------------------------------------------------------------------------------------------------


 INCAR:
   SYSTEM = Alumina_orthorombic_cell_under_strain
   ISTART = 0
   ICHARG = 2
   ENCUT = 400
   ALGO = Normal
   PREC = Normal
   ISPIN = 1
   LWAVE = T             (Write WAVECAR)
   LCHARG = T             (Write CHGCAR)
   NPAR = 1
   EDIFF = 1E-6
   NSW = 0
   NELM = 100
   POTIM = 0.5
   IBRION = -1
   ISMEAR = 1
   SIGMA = 0.026
   EDIFFG = -0.001
   ISIF = 2
   LREAL = Auto

 POTCAR:    PAW_PBE Al 04Jan2001                  
 POTCAR:    PAW_PBE O 08Apr2002                   
 POTCAR:    PAW_PBE Al 04Jan2001                  
   SHA256 =  17880443556af62b473fe41b62a467bd001ad55d2cabe504a3f22e34d4e9db96 Al/POTCAR             
   COPYR  = (c) Copyright 04Jan2001 Georg Kresse                                                    
   COPYR  = This file is part of the software VASP. Any use, copying, and all other rights are regul
   COPYR  = If you do not have a valid VASP license, you may not use, copy or distribute this file. 
   VRHFIN =Al: s2p1                                                                                 
   LEXCH  = PE                                                                                      
   EATOM  =    53.5387 eV,    3.9350 Ry                                                             
                                                                                                    
   TITEL  = PAW_PBE Al 04Jan2001                                                                    
   LULTRA =        F    use ultrasoft PP ?                                                          
   IUNSCR =        1    unscreen: 0-lin 1-nonlin 2-no                                               
   RPACOR =    1.500    partial core radius                                                         
   POMASS =   26.981; ZVAL   =    3.000    mass and valenz                                          
   RCORE  =    1.900    outmost cutoff radius                                                       
   RWIGS  =    2.650; RWIGS  =    1.402    wigner-seitz radius (au A)                               
   ENMAX  =  240.300; ENMIN  =  180.225 eV                                                          
   ICORE  =        2    local potential                                                             
   LCOR   =        T    correct aug charges                                                         
   LPAW   =        T    paw PP                                                                      
   EAUG   =  291.052                                                                                
   DEXC   =    0.000                                                                                
   RMAX   =    1.939    core radius for proj-oper                                                   
   RAUG   =    1.300    factor for augmentation sphere                                              
   RDEP   =    1.966    radius for radial grids                                                     
   RDEPT  =    1.856    core radius for aug-charge                                                  
                                                                                                    
   Atomic configuration                                                                             
    6 entries                                                                                       
     n  l   j            E        occ.                                                              
     1  0  0.50     -1511.1048   2.0000                                                             
     2  0  0.50      -108.1629   2.0000                                                             
     2  1  1.50       -69.6402   6.0000                                                             
     3  0  0.50        -7.7528   2.0000                                                             
     3  1  1.50        -2.7121   1.0000                                                             
     3  2  2.50        -2.7212   0.0000                                                             
   Description                                                                                      
     l       E           TYP  RCUT    TYP  RCUT                                                     
     0     -7.7528455     23  1.900                                                                 
     0     -3.3096929     23  1.900                                                                 
     1     -2.7120682     23  1.900                                                                 
     1     13.6058260     23  1.900                                                                 
     2     -2.7211652      7  1.900                                                                 
  local pseudopotential read in
  partial core-charges read in
  partial kinetic energy density read in
  atomic valenz-charges read in
  non local Contribution for L=           0  read in
    real space projection operators read in
  non local Contribution for L=           0  read in
    real space projection operators read in
  non local Contribution for L=           1  read in
    real space projection operators read in
  non local Contribution for L=           1  read in
    real space projection operators read in
    PAW grid and wavefunctions read in

   number of l-projection  operators is LMAX  =           4
   number of lm-projection operators is LMMAX =           8

 POTCAR:    PAW_PBE O 08Apr2002                   
   SHA256 =  818f92134a0a090dccd8ba1447fa70422a3b330e708bb4f08108d8ae51209ddf O/POTCAR              
   COPYR  = (c) Copyright 08Apr2002 Georg Kresse                                                    
   COPYR  = This file is part of the software VASP. Any use, copying, and all other rights are regul
   COPYR  = If you do not have a valid VASP license, you may not use, copy or distribute this file. 
   VRHFIN =O: s2p4                                                                                  
   LEXCH  = PE                                                                                      
   EATOM  =   432.3788 eV,   31.7789 Ry                                                             
                                                                                                    
   TITEL  = PAW_PBE O 08Apr2002                                                                     
   LULTRA =        F    use ultrasoft PP ?                                                          
   IUNSCR =        1    unscreen: 0-lin 1-nonlin 2-no                                               
   RPACOR =    1.200    partial core radius                                                         
   POMASS =   16.000; ZVAL   =    6.000    mass and valenz                                          
   RCORE  =    1.520    outmost cutoff radius                                                       
   RWIGS  =    1.550; RWIGS  =    0.820    wigner-seitz radius (au A)                               
   ENMAX  =  400.000; ENMIN  =  300.000 eV                                                          
   ICORE  =        2    local potential                                                             
   LCOR   =        T    correct aug charges                                                         
   LPAW   =        T    paw PP                                                                      
   EAUG   =  605.392                                                                                
   DEXC   =    0.000                                                                                
   RMAX   =    1.553    core radius for proj-oper                                                   
   RAUG   =    1.300    factor for augmentation sphere                                              
   RDEP   =    1.550    radius for radial grids                                                     
   RDEPT  =    1.329    core radius for aug-charge                                                  
                                                                                                    
   Atomic configuration                                                                             
    4 entries                                                                                       
     n  l   j            E        occ.                                                              
     1  0  0.50      -514.6923   2.0000                                                             
     2  0  0.50       -23.9615   2.0000                                                             
     2  1  0.50        -9.0305   4.0000                                                             
     3  2  1.50        -9.5241   0.0000                                                             
   Description                                                                                      
     l       E           TYP  RCUT    TYP  RCUT                                                     
     0    -23.9615318     23  1.200                                                                 
     0     -9.5240782     23  1.200                                                                 
     1     -9.0304911     23  1.520                                                                 
     1      8.1634956     23  1.520                                                                 
     2     -9.5240782      7  1.500                                                                 
  local pseudopotential read in
  partial core-charges read in
  partial kinetic energy density read in
  kinetic energy density of atom read in
  atomic valenz-charges read in
  non local Contribution for L=           0  read in
    real space projection operators read in
  non local Contribution for L=           0  read in
    real space projection operators read in
  non local Contribution for L=           1  read in
    real space projection operators read in
  non local Contribution for L=           1  read in
    real space projection operators read in
    PAW grid and wavefunctions read in

   number of l-projection  operators is LMAX  =           4
   number of lm-projection operators is LMMAX =           8

 Optimization of the real space projectors (new method)

 maximal supplied QI-value         = 19.84
 optimisation between [QCUT,QGAM] = [ 10.12, 20.44] = [ 28.68,116.96] Ry 
 Optimized for a Real-space Cutoff    1.23 Angstroem

   l    n(q)    QCUT    max X(q) W(low)/X(q) W(high)/X(q)  e(spline) 
   0      7    10.119   176.870    0.49E-04    0.18E-03    0.39E-07
   0      7    10.119   105.762    0.46E-04    0.18E-03    0.38E-07
   1      7    10.119    55.370    0.30E-03    0.37E-03    0.12E-06
   1      7    10.119    20.208    0.27E-03    0.35E-03    0.11E-06
 Optimization of the real space projectors (new method)

 maximal supplied QI-value         = 24.76
 optimisation between [QCUT,QGAM] = [ 10.15, 20.30] = [ 28.85,115.39] Ry 
 Optimized for a Real-space Cutoff    1.38 Angstroem

   l    n(q)    QCUT    max X(q) W(low)/X(q) W(high)/X(q)  e(spline) 
   0      8    10.150    20.381    0.22E-03    0.32E-03    0.29E-06
   0      8    10.150    15.268    0.23E-03    0.35E-03    0.30E-06
   1      8    10.150     5.964    0.46E-03    0.53E-03    0.21E-06
   1      8    10.150     5.382    0.38E-03    0.45E-03    0.19E-06
  PAW_PBE Al 04Jan2001                  :
 energy of atom  1       EATOM=  -53.5387
 kinetic energy error for atom=    0.0005 (will be added to EATOM!!)
  PAW_PBE O 08Apr2002                   :
 energy of atom  2       EATOM= -432.3788
 kinetic energy error for atom=    0.1156 (will be added to EATOM!!)


 POSCAR:    Al  O
  positions in direct lattice
  No initial velocities read in
 exchange correlation table for  LEXCH =        8
   RHO(1)=    0.500       N(1)  =     2000
   RHO(2)=  100.500       N(2)  =     4000



--------------------------------------------------------------------------------------------------------


 ion  position               nearest neighbor table
   1  0.126  0.016  0.390-  70 1.74  52 1.76  46 1.79  77 1.84  37 1.85  33 1.89   5 2.50  18 2.68
                            20 2.72  31 2.92  29 2.92  10 2.97   9 2.97   6 2.99  22 3.22  21 3.22
   2  0.126  0.516  0.390-  69 1.74  51 1.76  45 1.79  78 1.84  38 1.85  34 1.89   6 2.50  17 2.68
                            19 2.72  32 2.92  30 2.92   9 2.97  10 2.97   5 2.99  21 3.22  22 3.22
   3  0.626  0.016  0.390-  72 1.74  50 1.76  48 1.79  79 1.84  39 1.85  35 1.89   7 2.50  20 2.68
                            18 2.72  29 2.92  31 2.92  12 2.97  11 2.97   8 2.99  24 3.22  23 3.22
   4  0.626  0.516  0.390-  71 1.74  49 1.76  47 1.79  80 1.84  40 1.85  36 1.89   8 2.50  19 2.68
                            17 2.72  30 2.92  32 2.92  11 2.97  12 2.97   7 2.99  23 3.22  24 3.22
   5  0.126  0.234  0.610-  69 1.74  55 1.76  41 1.79  77 1.84  33 1.85  37 1.89   1 2.50  21 2.68
                            23 2.72  27 2.92  25 2.92  13 2.97  14 2.97   2 2.99  17 3.22  18 3.22
   6  0.126  0.734  0.610-  70 1.74  56 1.76  42 1.79  78 1.84  34 1.85  38 1.89   2 2.50  22 2.68
                            24 2.72  28 2.92  26 2.92  14 2.97  13 2.97   1 2.99  18 3.22  17 3.22
   7  0.626  0.234  0.610-  71 1.74  53 1.76  43 1.79  79 1.84  35 1.85  39 1.89   3 2.50  23 2.68
                            21 2.72  25 2.92  27 2.92  15 2.97  16 2.97   4 2.99  19 3.22  20 3.22
   8  0.626  0.734  0.610-  72 1.74  54 1.76  44 1.79  80 1.84  36 1.85  40 1.89   4 2.50  24 2.68
                            22 2.72  26 2.92  28 2.92  16 2.97  15 2.97   3 2.99  20 3.22  19 3.22
   9  0.124  0.266  0.110-  65 1.74  57 1.76  37 1.79  75 1.84  45 1.85  41 1.89  13 2.50  27 2.68
                            25 2.72  21 2.92  23 2.92   2 2.97   1 2.97  14 2.99  32 3.22  31 3.22
  10  0.124  0.766  0.110-  66 1.74  58 1.76  38 1.79  76 1.84  46 1.85  42 1.89  14 2.50  28 2.68
                            26 2.72  22 2.92  24 2.92   1 2.97   2 2.97  13 2.99  31 3.22  32 3.22
  11  0.624  0.266  0.110-  67 1.74  59 1.76  39 1.79  73 1.84  47 1.85  43 1.89  15 2.50  25 2.68
                            27 2.72  23 2.92  21 2.92   4 2.97   3 2.97  16 2.99  30 3.22  29 3.22
  12  0.624  0.766  0.110-  68 1.74  60 1.76  40 1.79  74 1.84  48 1.85  44 1.89  16 2.50  26 2.68
                            28 2.72  24 2.92  22 2.92   3 2.97   4 2.97  15 2.99  29 3.22  30 3.22
  13  0.124  0.484  0.890-  66 1.74  62 1.76  34 1.79  75 1.84  41 1.85  45 1.89   9 2.50  32 2.68
                            30 2.72  17 2.92  19 2.92   5 2.97   6 2.97  10 2.99  27 3.22  28 3.22
  14  0.124  0.984  0.890-  65 1.74  61 1.76  33 1.79  76 1.84  42 1.85  46 1.89  10 2.50  31 2.68
                            29 2.72  18 2.92  20 2.92   6 2.97   5 2.97   9 2.99  28 3.22  27 3.22
  15  0.624  0.484  0.890-  68 1.74  64 1.76  36 1.79  73 1.84  43 1.85  47 1.89  11 2.50  30 2.68
                            32 2.72  19 2.92  17 2.92   7 2.97   8 2.97  12 2.99  25 3.22  26 3.22
  16  0.624  0.984  0.890-  67 1.74  63 1.76  35 1.79  74 1.84  44 1.85  48 1.89  12 2.50  29 2.68
                            31 2.72  20 2.92  18 2.92   8 2.97   7 2.97  11 2.99  26 3.22  25 3.22
  17  0.374  0.484  0.610-  78 1.74  36 1.76  62 1.79  69 1.84  53 1.85  49 1.89  21 2.50   2 2.68
                             4 2.72  13 2.92  15 2.92  25 2.97  26 2.97  22 2.99   5 3.22   6 3.22
  18  0.374  0.984  0.610-  77 1.74  35 1.76  61 1.79  70 1.84  54 1.85  50 1.89  22 2.50   1 2.68
                             3 2.72  14 2.92  16 2.92  26 2.97  25 2.97  21 2.99   6 3.22   5 3.22
  19  0.874  0.484  0.610-  80 1.74  34 1.76  64 1.79  71 1.84  55 1.85  51 1.89  23 2.50   4 2.68
                             2 2.72  15 2.92  13 2.92  27 2.97  28 2.97  24 2.99   7 3.22   8 3.22
  20  0.874  0.984  0.610-  79 1.74  33 1.76  63 1.79  72 1.84  56 1.85  52 1.89  24 2.50   3 2.68
                             1 2.72  16 2.92  14 2.92  28 2.97  27 2.97  23 2.99   8 3.22   7 3.22
  21  0.374  0.266  0.390-  77 1.74  39 1.76  57 1.79  69 1.84  49 1.85  53 1.89  17 2.50   5 2.68
                             7 2.72   9 2.92  11 2.92  30 2.97  29 2.97  18 2.99   2 3.22   1 3.22
  22  0.374  0.766  0.390-  78 1.74  40 1.76  58 1.79  70 1.84  50 1.85  54 1.89  18 2.50   6 2.68
                             8 2.72  10 2.92  12 2.92  29 2.97  30 2.97  17 2.99   1 3.22   2 3.22
  23  0.874  0.266  0.390-  79 1.74  37 1.76  59 1.79  71 1.84  51 1.85  55 1.89  19 2.50   7 2.68
                             5 2.72  11 2.92   9 2.92  32 2.97  31 2.97  20 2.99   4 3.22   3 3.22
  24  0.874  0.766  0.390-  80 1.74  38 1.76  60 1.79  72 1.84  52 1.85  56 1.89  20 2.50   8 2.68
                             6 2.72  12 2.92  10 2.92  31 2.97  32 2.97  19 2.99   3 3.22   4 3.22
  25  0.376  0.234  0.890-  73 1.74  41 1.76  53 1.79  67 1.84  61 1.85  57 1.89  29 2.50  11 2.68
                             9 2.72   7 2.92   5 2.92  17 2.97  18 2.97  30 2.99  15 3.22  16 3.22
  26  0.376  0.734  0.890-  74 1.74  42 1.76  54 1.79  68 1.84  62 1.85  58 1.89  30 2.50  12 2.68
                            10 2.72   8 2.92   6 2.92  18 2.97  17 2.97  29 2.99  16 3.22  15 3.22
  27  0.876  0.234  0.890-  75 1.74  43 1.76  55 1.79  65 1.84  63 1.85  59 1.89  31 2.50   9 2.68
                            11 2.72   5 2.92   7 2.92  19 2.97  20 2.97  32 2.99  13 3.22  14 3.22
  28  0.876  0.734  0.890-  76 1.74  44 1.76  56 1.79  66 1.84  64 1.85  60 1.89  32 2.50  10 2.68
                            12 2.72   6 2.92   8 2.92  20 2.97  19 2.97  31 2.99  14 3.22  13 3.22
  29  0.376  0.016  0.110-  74 1.74  46 1.76  50 1.79  67 1.84  57 1.85  61 1.89  25 2.50  16 2.68
                            14 2.72   3 2.92   1 2.92  22 2.97  21 2.97  26 2.99  12 3.22  11 3.22
  30  0.376  0.516  0.110-  73 1.74  45 1.76  49 1.79  68 1.84  58 1.85  62 1.89  26 2.50  15 2.68
                            13 2.72   4 2.92   2 2.92  22 2.97  21 2.97  25 2.99  11 3.22  12 3.22
  31  0.876  0.016  0.110-  76 1.74  48 1.76  52 1.79  65 1.84  59 1.85  63 1.89  27 2.50  14 2.68
                            16 2.72   1 2.92   3 2.92  24 2.97  23 2.97  28 2.99  10 3.22   9 3.22
  32  0.876  0.516  0.110-  75 1.74  47 1.76  51 1.79  66 1.84  60 1.85  64 1.89  28 2.50  13 2.68
                            15 2.72   2 2.92   4 2.92  24 2.97  23 2.97  27 2.99   9 3.22  10 3.22
  33  0.054  0.051  0.654-  20 1.76  14 1.79   5 1.85   1 1.89
  34  0.054  0.551  0.654-  19 1.76  13 1.79   6 1.85   2 1.89
  35  0.554  0.051  0.654-  18 1.76  16 1.79   7 1.85   3 1.89
  36  0.554  0.551  0.654-  17 1.76  15 1.79   8 1.85   4 1.89
  37  0.054  0.199  0.346-  23 1.76   9 1.79   1 1.85   5 1.89
  38  0.054  0.699  0.346-  24 1.76  10 1.79   2 1.85   6 1.89
  39  0.554  0.199  0.346-  21 1.76  11 1.79   3 1.85   7 1.89
  40  0.554  0.699  0.346-  22 1.76  12 1.79   4 1.85   8 1.89
  41  0.196  0.301  0.846-  25 1.76   5 1.79  13 1.85   9 1.89
  42  0.196  0.801  0.846-  26 1.76   6 1.79  14 1.85  10 1.89
  43  0.696  0.301  0.846-  27 1.76   7 1.79  15 1.85  11 1.89
  44  0.696  0.801  0.846-  28 1.76   8 1.79  16 1.85  12 1.89
  45  0.196  0.449  0.154-  30 1.76   2 1.79   9 1.85  13 1.89
  46  0.196  0.949  0.154-  29 1.76   1 1.79  10 1.85  14 1.89
  47  0.696  0.449  0.154-  32 1.76   4 1.79  11 1.85  15 1.89
  48  0.696  0.949  0.154-  31 1.76   3 1.79  12 1.85  16 1.89
  49  0.446  0.449  0.346-   4 1.76  30 1.79  21 1.85  17 1.89
  50  0.446  0.949  0.346-   3 1.76  29 1.79  22 1.85  18 1.89
  51  0.946  0.449  0.346-   2 1.76  32 1.79  23 1.85  19 1.89
  52  0.946  0.949  0.346-   1 1.76  31 1.79  24 1.85  20 1.89
  53  0.446  0.301  0.654-   7 1.76  25 1.79  17 1.85  21 1.89
  54  0.446  0.801  0.654-   8 1.76  26 1.79  18 1.85  22 1.89
  55  0.946  0.301  0.654-   5 1.76  27 1.79  19 1.85  23 1.89
  56  0.946  0.801  0.654-   6 1.76  28 1.79  20 1.85  24 1.89
  57  0.304  0.199  0.154-   9 1.76  21 1.79  29 1.85  25 1.89
  58  0.304  0.699  0.154-  10 1.76  22 1.79  30 1.85  26 1.89
  59  0.804  0.199  0.154-  11 1.76  23 1.79  31 1.85  27 1.89
  60  0.804  0.699  0.154-  12 1.76  24 1.79  32 1.85  28 1.89
  61  0.304  0.051  0.846-  14 1.76  18 1.79  25 1.85  29 1.89
  62  0.304  0.551  0.846-  13 1.76  17 1.79  26 1.85  30 1.89
  63  0.804  0.051  0.846-  16 1.76  20 1.79  27 1.85  31 1.89
  64  0.804  0.551  0.846-  15 1.76  19 1.79  28 1.85  32 1.89
  65  0.025  0.125  0.000-  14 1.74   9 1.74  27 1.84  31 1.84
  66  0.025  0.625  0.000-  13 1.74  10 1.74  28 1.84  32 1.84
  67  0.525  0.125  0.000-  16 1.74  11 1.74  25 1.84  29 1.84
  68  0.525  0.625  0.000-  15 1.74  12 1.74  26 1.84  30 1.84
  69  0.225  0.375  0.500-   5 1.74   2 1.74  17 1.84  21 1.84
  70  0.225  0.875  0.500-   6 1.74   1 1.74  18 1.84  22 1.84
  71  0.725  0.375  0.500-   7 1.74   4 1.74  19 1.84  23 1.84
  72  0.725  0.875  0.500-   8 1.74   3 1.74  20 1.84  24 1.84
  73  0.475  0.375  0.000-  25 1.74  30 1.74  15 1.84  11 1.84
  74  0.475  0.875  0.000-  29 1.74  26 1.74  16 1.84  12 1.84
  75  0.975  0.375  0.000-  27 1.74  32 1.74  13 1.84   9 1.84
  76  0.975  0.875  0.000-  31 1.74  28 1.74  14 1.84  10 1.84
  77  0.275  0.125  0.500-  18 1.74  21 1.74   5 1.84   1 1.84
  78  0.275  0.625  0.500-  17 1.74  22 1.74   6 1.84   2 1.84
  79  0.775  0.125  0.500-  20 1.74  23 1.74   7 1.84   3 1.84
  80  0.775  0.625  0.500-  19 1.74  24 1.74   8 1.84   4 1.84

  LATTYP: Found a simple orthorhombic cell.
 ALAT       =     6.6016006095
 B/A-ratio  =     1.3681458986
 C/A-ratio  =     1.4070268484
  
  Lattice vectors:
  
 A1 = (   0.0000000000,   0.0000000000,   6.6016006095)
 A2 = (   9.0319527980,   0.0000000000,   0.0000000000)
 A3 = (   0.0000000000,   9.2886293002,   0.0000000000)


Analysis of symmetry for initial positions (statically):
=====================================================================
 Subroutine PRICEL returns following result:
 
  LATTYP: Found a simple orthorhombic cell.
 ALAT       =     4.5159763992
 B/A-ratio  =     1.0284187391
 C/A-ratio  =     1.4618323981
  
  Lattice vectors:
  
 A1 = (   4.5159763992,   0.0000000000,   0.0000000000)
 A2 = (   0.0000000000,   4.6443147542,   0.0000000000)
 A3 = (   0.0000000000,   0.0000000000,   6.6016006095)
 
   4 primitive cells build up your supercell.
 

 Routine SETGRP: Setting up the symmetry group for a 
 simple orthorhombic supercell.


 Subroutine GETGRP returns: Found  8 space group operations
 (whereof  2 operations were pure point group operations)
 out of a pool of  8 trial point group operations.


The static configuration has the point symmetry S_2 .
 The point group associated with its full space group is D_2h.


Analysis of symmetry for dynamics (positions and initial velocities):
=====================================================================
 Subroutine PRICEL returns following result:
 
  LATTYP: Found a simple orthorhombic cell.
 ALAT       =     4.5159763992
 B/A-ratio  =     1.0284187391
 C/A-ratio  =     1.4618323981
  
  Lattice vectors:
  
 A1 = (   4.5159763992,   0.0000000000,   0.0000000000)
 A2 = (   0.0000000000,   4.6443147542,   0.0000000000)
 A3 = (   0.0000000000,   0.0000000000,   6.6016006095)
 
   4 primitive cells build up your supercell.
 

 Routine SETGRP: Setting up the symmetry group for a 
 simple orthorhombic supercell.


 Subroutine GETGRP returns: Found  8 space group operations
 (whereof  2 operations were pure point group operations)
 out of a pool of  8 trial point group operations.


The dynamic configuration has the point symmetry S_2 .
 The point group associated with its full space group is D_2h.


Analysis of constrained symmetry for selective dynamics:
=====================================================================
 Subroutine PRICEL returns following result:
 
  LATTYP: Found a simple orthorhombic cell.
 ALAT       =     4.5159763992
 B/A-ratio  =     1.0284187391
 C/A-ratio  =     1.4618323981
  
  Lattice vectors:
  
 A1 = (   4.5159763992,   0.0000000000,   0.0000000000)
 A2 = (   0.0000000000,   4.6443147542,   0.0000000000)
 A3 = (   0.0000000000,   0.0000000000,   6.6016006095)
 
   4 primitive cells build up your supercell.
 

 Routine SETGRP: Setting up the symmetry group for a 
 simple orthorhombic supercell.


 Subroutine GETGRP returns: Found  8 space group operations
 (whereof  2 operations were pure point group operations)
 out of a pool of  8 trial point group operations.


The constrained configuration has the point symmetry S_2 .
 The point group associated with its full space group is D_2h.


 Subroutine INISYM returns: Found  8 space group operations
 (whereof  2 operations are pure point group operations),
 and found     4 'primitive' translations


----------------------------------------------------------------------------------------

                                     Primitive cell                                     

  volume of cell :     138.4594

  direct lattice vectors                    reciprocal lattice vectors
     4.515976399  0.000000000  0.000000000     0.221436055  0.000000000  0.000000000
     0.000000000  4.644314754  0.000000000     0.000000000  0.215317017  0.000000000
     0.000000000  0.000000000  6.601600610     0.000000000  0.000000000  0.151478415

  length of vectors
     4.515976399  4.644314754  6.601600610     0.221436055  0.215317017  0.151478415

  position of ions in fractional coordinates (direct lattice)
     0.252301010  0.031394432  0.389988368
     0.252301010  0.468605564  0.610011602
     0.247698990  0.531394421  0.110011610
     0.247698990  0.968605501  0.889988398
     0.747698961  0.968605501  0.610011602
     0.747698961  0.531394421  0.389988368
     0.752301039  0.468605564  0.889988398
     0.752301039  0.031394432  0.110011610
     0.107072531  0.102390997  0.654148561
     0.107072531  0.397608992  0.345851469
     0.392927454  0.602391023  0.845851439
     0.392927454  0.897608899  0.154148517
     0.892927514  0.897608899  0.345851469
     0.892927514  0.602391023  0.654148561
     0.607072486  0.397608992  0.154148517
     0.607072486  0.102390997  0.845851439
     0.050188047  0.249999994  0.000000000
     0.449811960  0.749999961  0.500000000
     0.949811900  0.749999961  0.000000000
     0.550188099  0.249999994  0.500000000

  ion indices of the primitive-cell ions
   primitive index   ion index
                 1           1
                 2           5
                 3          10
                 4          14
                 5          18
                 6          22
                 7          27
                 8          31
                 9          33
                10          37
                11          42
                12          46
                13          52
                14          56
                15          57
                16          61
                17          65
                18          70
                19          76
                20          77

----------------------------------------------------------------------------------------



 KPOINTS: k-points                                

Automatic generation of k-mesh.
 Grid dimensions read from file:
 generate k-points for:    4    4    4

 Generating k-lattice:

  Cartesian coordinates                     Fractional coordinates (reciprocal lattice)
     0.027679507  0.000000000  0.000000000     0.250000000  0.000000000  0.000000000
     0.000000000  0.026914628  0.000000000     0.000000000  0.250000000  0.000000000
     0.000000000  0.000000000  0.037869604     0.000000000  0.000000000  0.250000000

  Length of vectors
     0.027679507  0.026914628  0.037869604

  Shift w.r.t. Gamma in fractional coordinates (k-lattice)
     0.500000000  0.500000000  0.500000000

 
 Subroutine IBZKPT returns following result:
 ===========================================
 
 Found      8 irreducible k-points:
 
 Following reciprocal coordinates:
            Coordinates               Weight
  0.125000  0.125000  0.125000      8.000000
  0.375000  0.125000  0.125000      8.000000
  0.125000  0.375000  0.125000      8.000000
  0.375000  0.375000  0.125000      8.000000
  0.125000  0.125000  0.375000      8.000000
  0.375000  0.125000  0.375000      8.000000
  0.125000  0.375000  0.375000      8.000000
  0.375000  0.375000  0.375000      8.000000
 
 Following cartesian coordinates:
            Coordinates               Weight
  0.013840  0.013457  0.018935      8.000000
  0.041519  0.013457  0.018935      8.000000
  0.013840  0.040372  0.018935      8.000000
  0.041519  0.040372  0.018935      8.000000
  0.013840  0.013457  0.056804      8.000000
  0.041519  0.013457  0.056804      8.000000
  0.013840  0.040372  0.056804      8.000000
  0.041519  0.040372  0.056804      8.000000
 


--------------------------------------------------------------------------------------------------------




 Dimension of arrays:
   k-points           NKPTS =      8   k-points in BZ     NKDIM =      8   number of bands    NBANDS=    233
   number of dos      NEDOS =    301   number of ions     NIONS =     80
   non local maximal  LDIM  =      4   non local SUM 2l+1 LMDIM =      8
   total plane-waves  NPLWV =  73728
   max r-space proj   IRMAX =   1517   max aug-charges    IRDMAX=   5380
   dimension x,y,z NGX =    48 NGY =   48 NGZ =   32
   dimension x,y,z NGXF=    96 NGYF=   96 NGZF=   64
   support grid    NGXF=    96 NGYF=   96 NGZF=   64
   ions per type =              32  48
   NGX,Y,Z   is equivalent  to a cutoff of   8.84,  8.59,  8.06 a.u.
   NGXF,Y,Z  is equivalent  to a cutoff of  17.67, 17.18, 16.12 a.u.

 SYSTEM =  Alumina_orthorombic_cell_under_strain   
 POSCAR =     Al  O                                

 Startparameter for this run:
   NWRITE =      2    write-flag & timer
   PREC   = normal    normal or accurate (medium, high low for compatibility)
   ISTART =      0    job   : 0-new  1-cont  2-samecut
   ICHARG =      2    charge: 1-file 2-atom 10-const
   ISPIN  =      1    spin polarized calculation?
   LNONCOLLINEAR =      F non collinear calculations
   LSORBIT =      F    spin-orbit coupling
   INIWAV =      1    electr: 0-lowe 1-rand  2-diag
   LASPH  =      F    aspherical Exc in radial PAW
 Electronic Relaxation 1
   ENCUT  =  400.0 eV  29.40 Ry    5.42 a.u.  14.73 15.15 10.77*2*pi/ulx,y,z
   ENINI  =  400.0     initial cutoff
   ENAUG  =  605.4 eV  augmentation charge cutoff
   NELM   =    100;   NELMIN=  2; NELMDL= -5     # of ELM steps 
   EDIFF  = 0.1E-05   stopping-criterion for ELM
   LREAL  =      T    real-space projection
   NLSPLINE    = F    spline interpolate recip. space projectors
   LCOMPAT=      F    compatible to vasp.4.4
   GGA_COMPAT  = T    GGA compatible to vasp.4.4-vasp.4.6
   LMAXPAW     = -100 max onsite density
   LMAXMIX     =    2 max onsite mixed and CHGCAR
   VOSKOWN=      0    Vosko Wilk Nusair interpolation
   ROPT   =   -0.00050  -0.00050
 Ionic relaxation
   EDIFFG = -.1E-02   stopping-criterion for IOM
   NSW    =      0    number of steps for IOM
   NBLOCK =      1;   KBLOCK =      1    inner block; outer block 
   IBRION =     -1    ionic relax: 0-MD 1-quasi-New 2-CG
   NFREE  =      0    steps in history (QN), initial steepest desc. (CG)
   ISIF   =      2    stress and relaxation
   IWAVPR =     10    prediction:  0-non 1-charg 2-wave 3-comb
   ISYM   =      2    0-nonsym 1-usesym 2-fastsym
   LCORR  =      T    Harris-Foulkes like correction to forces

   POTIM  = 0.5000    time-step for ionic-motion
   TEIN   =    0.0    initial temperature
   TEBEG  =    0.0;   TEEND  =   0.0 temperature during run
   SMASS  =  -3.00    Nose mass-parameter (am)
   estimated Nose-frequenzy (Omega)   =  0.10E-29 period in steps = 0.13E+47 mass=  -0.186E-26a.u.
   SCALEE = 1.0000    scale energy and forces
   NPACO  =    256;   APACO  = 10.0  distance and # of slots for P.C.
   PSTRESS=    0.0 pullay stress

  Mass of Ions in am
   POMASS =  26.98 16.00
  Ionic Valenz
   ZVAL   =   3.00  6.00
  Atomic Wigner-Seitz radii
   RWIGS  =  -1.00 -1.00
  virtual crystal weights 
   VCA    =   1.00  1.00
   NELECT =     384.0000    total number of electrons
   NUPDOWN=      -1.0000    fix difference up-down

 DOS related values:
   EMIN   =  10.00;   EMAX   =-10.00  energy-range for DOS
   EFERMI =   0.00
   ISMEAR =     1;   SIGMA  =   0.03  broadening in eV -4-tet -1-fermi 0-gaus

 Electronic relaxation 2 (details)
   IALGO  =     38    algorithm
   LDIAG  =      T    sub-space diagonalisation (order eigenvalues)
   LSUBROT=      F    optimize rotation matrix (better conditioning)
   TURBO    =      0    0=normal 1=particle mesh
   IRESTART =      0    0=no restart 2=restart with 2 vectors
   NREBOOT  =      0    no. of reboots
   NMIN     =      0    reboot dimension
   EREF     =   0.00    reference energy to select bands
   IMIX   =      4    mixing-type and parameters
     AMIX     =   0.40;   BMIX     =  1.00
     AMIX_MAG =   1.60;   BMIX_MAG =  1.00
     AMIN     =   0.10
     WC   =   100.;   INIMIX=   1;  MIXPRE=   1;  MAXMIX= -45

 Intra band minimization:
   WEIMIN = 0.0000     energy-eigenvalue tresh-hold
   EBREAK =  0.11E-08  absolut break condition
   DEPER  =   0.30     relativ break condition  

   TIME   =   0.40     timestep for ELM

  volume/ion in A,a.u.               =       6.92        46.72
  Fermi-wavevector in a.u.,A,eV,Ry     =   1.448964  2.738146 28.565404  2.099498
  Thomas-Fermi vector in A             =   2.566745

 Write flags
   LWAVE        =      T    write WAVECAR
   LDOWNSAMPLE  =      F    k-point downsampling of WAVECAR
   LCHARG       =      T    write CHGCAR
   LVTOT        =      F    write LOCPOT, total local potential
   LVHAR        =      F    write LOCPOT, Hartree potential only
   LELF         =      F    write electronic localiz. function (ELF)
   LORBIT       =      0    0 simple, 1 ext, 2 COOP (PROOUT), +10 PAW based schemes


 Dipole corrections
   LMONO  =      F    monopole corrections only (constant potential shift)
   LDIPOL =      F    correct potential (dipole corrections)
   IDIPOL =      0    1-x, 2-y, 3-z, 4-all directions 
   EPSILON=  1.0000000 bulk dielectric constant

 Exchange correlation treatment:
   GGA     =    --    GGA type
   LEXCH   =     8    internal setting for exchange type
   LIBXC   =     F    Libxc                    
   VOSKOWN =     0    Vosko Wilk Nusair interpolation
   LHFCALC =     F    Hartree Fock is set to
   LHFONE  =     F    Hartree Fock one center treatment
   AEXX    =    0.0000 exact exchange contribution

 Linear response parameters
   LEPSILON=     F    determine dielectric tensor
   LRPA    =     F    only Hartree local field effects (RPA)
   LNABLA  =     F    use nabla operator in PAW spheres
   LVEL    =     F    velocity operator in full k-point grid
   CSHIFT  =0.1000    complex shift for real part using Kramers Kronig
   OMEGAMAX=  -1.0    maximum frequency
   DEG_THRESHOLD= 0.2000000E-02 threshold for treating states as degnerate
   RTIME   =   -0.100 relaxation time in fs
  (WPLASMAI=    0.000 imaginary part of plasma frequency in eV, 0.658/RTIME)
   DFIELD  = 0.0000000 0.0000000 0.0000000 field for delta impulse in time

  Optional k-point grid parameters
   LKPOINTS_OPT  =     F    use optional k-point grid
   KPOINTS_OPT_MODE=     1    mode for optional k-point grid

 Orbital magnetization related:
   ORBITALMAG=     F  switch on orbital magnetization
   LCHIMAG   =     F  perturbation theory with respect to B field
   DQ        =  0.001000  dq finite difference perturbation B field
   LLRAUG    =     F  two centre corrections for induced B field



--------------------------------------------------------------------------------------------------------


 Static calculation
 charge density and potential will be updated during run
 non-spin polarized calculation
 Variant of blocked Davidson
 Davidson routine will perform the subspace rotation
 perform sub-space diagonalisation
    after iterative eigenvector-optimisation
 modified Broyden-mixing scheme, WC =      100.0
 initial mixing is a Kerker type mixing with AMIX =  0.4000 and BMIX =      1.0000
 Hartree-type preconditioning will be used
 using additional bands           41
 real space projection scheme for non local part
 use partial core corrections
 calculate Harris-corrections to forces   (improved forces if not selfconsistent)
 use gradient corrections 
 use of overlap-Matrix (Vanderbilt PP)
 Methfessel and Paxton  Order N= 1 SIGMA  =   0.03


--------------------------------------------------------------------------------------------------------


  energy-cutoff  :      400.00
  volume of cell :      553.84
      direct lattice vectors                 reciprocal lattice vectors
     9.031952798  0.000000000  0.000000000     0.110718028  0.000000000  0.000000000
     0.000000000  9.288629300  0.000000000     0.000000000  0.107658511  0.000000000
     0.000000000  0.000000000  6.601600610     0.000000000  0.000000000  0.151478415

  length of vectors
     9.031952798  9.288629300  6.601600610     0.110718028  0.107658511  0.151478415



 k-points in units of 2pi/SCALE and weight: k-points                                
   0.01383975  0.01345731  0.01893480       0.125
   0.04151926  0.01345731  0.01893480       0.125
   0.01383975  0.04037194  0.01893480       0.125
   0.04151926  0.04037194  0.01893480       0.125
   0.01383975  0.01345731  0.05680441       0.125
   0.04151926  0.01345731  0.05680441       0.125
   0.01383975  0.04037194  0.05680441       0.125
   0.04151926  0.04037194  0.05680441       0.125

 k-points in reciprocal lattice and weights: k-points                                
   0.12500000  0.12500000  0.12500000       0.125
   0.37500000  0.12500000  0.12500000       0.125
   0.12500000  0.37500000  0.12500000       0.125
   0.37500000  0.37500000  0.12500000       0.125
   0.12500000  0.12500000  0.37500000       0.125
   0.37500000  0.12500000  0.37500000       0.125
   0.12500000  0.37500000  0.37500000       0.125
   0.37500000  0.37500000  0.37500000       0.125

 position of ions in fractional coordinates (direct lattice) 
   0.12615050  0.01569722  0.38998837
   0.12615050  0.51569723  0.38998837
   0.62615052  0.01569722  0.38998837
   0.62615052  0.51569723  0.38998837
   0.12615050  0.23430279  0.61001160
   0.12615050  0.73430277  0.61001160
   0.62615052  0.23430279  0.61001160
   0.62615052  0.73430277  0.61001160
   0.12384950  0.26569723  0.11001161
   0.12384950  0.76569723  0.11001161
   0.62384948  0.26569723  0.11001161
   0.62384948  0.76569723  0.11001161
   0.12384950  0.48430277  0.88998840
   0.12384950  0.98430277  0.88998840
   0.62384948  0.48430277  0.88998840
   0.62384948  0.98430277  0.88998840
   0.37384948  0.48430277  0.61001160
   0.37384948  0.98430277  0.61001160
   0.87384948  0.48430277  0.61001160
   0.87384948  0.98430277  0.61001160
   0.37384948  0.26569723  0.38998837
   0.37384948  0.76569723  0.38998837
   0.87384948  0.26569723  0.38998837
   0.87384948  0.76569723  0.38998837
   0.37615052  0.23430279  0.88998840
   0.37615052  0.73430277  0.88998840
   0.87615052  0.23430279  0.88998840
   0.87615052  0.73430277  0.88998840
   0.37615052  0.01569722  0.11001161
   0.37615052  0.51569723  0.11001161
   0.87615052  0.01569722  0.11001161
   0.87615052  0.51569723  0.11001161
   0.05353627  0.05119550  0.65414856
   0.05353627  0.55119553  0.65414856
   0.55353624  0.05119550  0.65414856
   0.55353624  0.55119553  0.65414856
   0.05353627  0.19880450  0.34585147
   0.05353627  0.69880447  0.34585147
   0.55353624  0.19880450  0.34585147
   0.55353624  0.69880447  0.34585147
   0.19646373  0.30119550  0.84585144
   0.19646373  0.80119553  0.84585144
   0.69646370  0.30119550  0.84585144
   0.69646370  0.80119553  0.84585144
   0.19646373  0.44880450  0.15414852
   0.19646373  0.94880447  0.15414852
   0.69646370  0.44880450  0.15414852
   0.69646370  0.94880447  0.15414852
   0.44646376  0.44880450  0.34585147
   0.44646376  0.94880447  0.34585147
   0.94646376  0.44880450  0.34585147
   0.94646376  0.94880447  0.34585147
   0.44646376  0.30119550  0.65414856
   0.44646376  0.80119553  0.65414856
   0.94646376  0.30119550  0.65414856
   0.94646376  0.80119553  0.65414856
   0.30353624  0.19880450  0.15414852
   0.30353624  0.69880447  0.15414852
   0.80353624  0.19880450  0.15414852
   0.80353624  0.69880447  0.15414852
   0.30353624  0.05119550  0.84585144
   0.30353624  0.55119553  0.84585144
   0.80353624  0.05119550  0.84585144
   0.80353624  0.55119553  0.84585144
   0.02509402  0.12500000  0.00000000
   0.02509402  0.62500000  0.00000000
   0.52509405  0.12500000  0.00000000
   0.52509405  0.62500000  0.00000000
   0.22490598  0.37500000  0.50000000
   0.22490598  0.87500000  0.50000000
   0.72490601  0.37500000  0.50000000
   0.72490601  0.87500000  0.50000000
   0.47490595  0.37500000  0.00000000
   0.47490595  0.87500000  0.00000000
   0.97490595  0.37500000  0.00000000
   0.97490595  0.87500000  0.00000000
   0.27509405  0.12500000  0.50000000
   0.27509405  0.62500000  0.50000000
   0.77509405  0.12500000  0.50000000
   0.77509405  0.62500000  0.50000000

 position of ions in cartesian coordinates  (Angst):
   1.13938540  0.14580562  2.57454745
   1.13938540  4.79012038  2.57454745
   5.65536194  0.14580562  2.57454745
   5.65536194  4.79012038  2.57454745
   1.13938540  2.17635174  4.02705297
   1.13938540  6.82066625  4.02705297
   5.65536194  2.17635174  4.02705297
   5.65536194  6.82066625  4.02705297
   1.11860280  2.46796305  0.72625271
   1.11860280  7.11227770  0.72625271
   5.63457906  2.46796305  0.72625271
   5.63457906  7.11227770  0.72625271
   1.11860280  4.49850892  5.87534795
   1.11860280  9.14282357  5.87534795
   5.63457906  4.49850892  5.87534795
   5.63457906  9.14282357  5.87534795
   3.37659086  4.49850892  4.02705297
   3.37659086  9.14282357  4.02705297
   7.89256726  4.49850892  4.02705297
   7.89256726  9.14282357  4.02705297
   3.37659086  2.46796305  2.57454745
   3.37659086  7.11227770  2.57454745
   7.89256726  2.46796305  2.57454745
   7.89256726  7.11227770  2.57454745
   3.39737374  2.17635174  5.87534795
   3.39737374  6.82066625  5.87534795
   7.91335014  2.17635174  5.87534795
   7.91335014  6.82066625  5.87534795
   3.39737374  0.14580562  0.72625271
   3.39737374  4.79012038  0.72625271
   7.91335014  0.14580562  0.72625271
   7.91335014  4.79012038  0.72625271
   0.48353702  0.47553602  4.31842754
   0.48353702  5.11985094  4.31842754
   4.99951322  0.47553602  4.31842754
   4.99951322  5.11985094  4.31842754
   0.48353702  1.84662131  2.28317327
   0.48353702  6.49093568  2.28317327
   4.99951322  1.84662131  2.28317327
   4.99951322  6.49093568  2.28317327
   1.77445111  2.79769334  5.58397337
   1.77445111  7.44200827  5.58397337
   6.29042724  2.79769334  5.58397337
   6.29042724  7.44200827  5.58397337
   1.77445111  4.16877863  1.01762694
   1.77445111  8.81309301  1.01762694
   6.29042724  4.16877863  1.01762694
   6.29042724  8.81309301  1.01762694
   4.03243958  4.16877863  2.28317327
   4.03243958  8.81309301  2.28317327
   8.54841598  4.16877863  2.28317327
   8.54841598  8.81309301  2.28317327
   4.03243958  2.79769334  4.31842754
   4.03243958  7.44200827  4.31842754
   8.54841598  2.79769334  4.31842754
   8.54841598  7.44200827  4.31842754
   2.74152502  1.84662131  1.01762694
   2.74152502  6.49093568  1.01762694
   7.25750142  1.84662131  1.01762694
   7.25750142  6.49093568  1.01762694
   2.74152502  0.47553602  5.58397337
   2.74152502  5.11985094  5.58397337
   7.25750142  0.47553602  5.58397337
   7.25750142  5.11985094  5.58397337
   0.22664804  1.16107866  0.00000000
   0.22664804  5.80539331  0.00000000
   4.74262467  1.16107866  0.00000000
   4.74262467  5.80539331  0.00000000
   2.03134020  3.48323599  3.30080031
   2.03134020  8.12755064  3.30080031
   6.54731686  3.48323599  3.30080031
   6.54731686  8.12755064  3.30080031
   4.28932813  3.48323599  0.00000000
   4.28932813  8.12755064  0.00000000
   8.80530452  3.48323599  0.00000000
   8.80530452  8.12755064  0.00000000
   2.48463647  1.16107866  3.30080031
   2.48463647  5.80539331  3.30080031
   7.00061287  1.16107866  3.30080031
   7.00061287  5.80539331  3.30080031



--------------------------------------------------------------------------------------------------------


 k-point   1 :   0.1250 0.1250 0.1250  plane waves:   10060
 k-point   2 :   0.3750 0.1250 0.1250  plane waves:   10063
 k-point   3 :   0.1250 0.3750 0.1250  plane waves:   10046
 k-point   4 :   0.3750 0.3750 0.1250  plane waves:   10069
 k-point   5 :   0.1250 0.1250 0.3750  plane waves:   10055
 k-point   6 :   0.3750 0.1250 0.3750  plane waves:   10060
 k-point   7 :   0.1250 0.3750 0.3750  plane waves:   10069
 k-point   8 :   0.3750 0.3750 0.3750  plane waves:   10068

 maximum and minimum number of plane-waves per node :     10069    10046

 maximum number of plane-waves:     10069
 maximum index in each direction: 
   IXMAX=   14   IYMAX=   15   IZMAX=   10
   IXMIN=  -15   IYMIN=  -15   IZMIN=  -11


 serial   3D FFT for wavefunctions
 parallel 3D FFT for charge:
    minimum data exchange during FFTs selected (reduces bandwidth)


 total amount of memory used by VASP MPI-rank0   416196. kBytes
=======================================================================

   base      :      30000. kBytes
   nonlr-proj:       9097. kBytes
   fftplans  :      20716. kBytes
   grid      :      36753. kBytes
   one-center:        245. kBytes
   wavefun   :     319385. kBytes

     INWAV:  cpu time      0.0001: real time      0.0003
 Broyden mixing: mesh for mixing (old mesh)
   NGX = 29   NGY = 31   NGZ = 21
  (NGX  = 96   NGY  = 96   NGZ  = 64)
  gives a total of  18879 points

 initial charge density was supplied:
 charge density of overlapping atoms calculated
 number of electron     384.0000000 magnetization 
 keeping initial charge density in first step


--------------------------------------------------------------------------------------------------------


 Maximum index for non-local projection operator         1431
 Maximum index for augmentation-charges         5008 (set IRDMAX)


--------------------------------------------------------------------------------------------------------


 First call to EWALD:  gamma=   0.216
 Maximum number of real-space cells 3x 2x 3
 Maximum number of reciprocal cells 3x 3x 2

    FEWALD:  cpu time      0.0728: real time      0.0729


--------------------------------------- Iteration      1(   1)  ---------------------------------------


    POTLOK:  cpu time      0.3190: real time      0.3210
    SETDIJ:  cpu time      0.0794: real time      0.0799
     EDDAV:  cpu time     41.3249: real time     41.7521
       DOS:  cpu time      0.0024: real time      0.0026
    --------------------------------------------
      LOOP:  cpu time     41.7257: real time     42.1556

 eigenvalue-minimisations  :  3728
 total energy-change (2. order) : 0.1922725E+04  (-0.1829443E+05)
 number of electron     384.0000000 magnetization 
 augmentation part      384.0000000 magnetization 

 Free energy of the ion-electron system (eV)
  ---------------------------------------------------
  alpha Z        PSCENC =       745.90513244
  Ewald energy   TEWEN  =    -20729.40679516
  -Hartree energ DENC   =     -4434.56500172
  -exchange      EXHF   =         0.00000000
  -V(xc)+E(xc)   XCENC  =       570.86525726
  PAW double counting   =     18752.77991877   -17816.57094691
  entropy T*S    EENTRO =        -0.00038046
  eigenvalues    EBANDS =      2371.86303057
  atomic energy  EATOM  =     22461.85434800
  Solvation  Ediel_sol  =         0.00000000
  ---------------------------------------------------
  free energy    TOTEN  =      1922.72456279 eV

  energy without entropy =     1922.72494325  energy(sigma->0) =     1922.72468961


--------------------------------------------------------------------------------------------------------




--------------------------------------- Iteration      1(   2)  ---------------------------------------


     EDDAV:  cpu time     46.5351: real time     47.0966
       DOS:  cpu time      0.0022: real time      0.0025
    --------------------------------------------
      LOOP:  cpu time     46.5374: real time     47.0991

 eigenvalue-minimisations  :  4328
 total energy-change (2. order) :-0.2449993E+04  (-0.2398245E+04)
 number of electron     384.0000000 magnetization 
 augmentation part      384.0000000 magnetization 

 Free energy of the ion-electron system (eV)
  ---------------------------------------------------
  alpha Z        PSCENC =       745.90513244
  Ewald energy   TEWEN  =    -20729.40679516
  -Hartree energ DENC   =     -4434.56500172
  -exchange      EXHF   =         0.00000000
  -V(xc)+E(xc)   XCENC  =       570.86525726
  PAW double counting   =     18752.77991877   -17816.57094691
  entropy T*S    EENTRO =         0.00038168
  eigenvalues    EBANDS =       -78.13080137
  atomic energy  EATOM  =     22461.85434800
  Solvation  Ediel_sol  =         0.00000000
  ---------------------------------------------------
  free energy    TOTEN  =      -527.26850701 eV

  energy without entropy =     -527.26888869  energy(sigma->0) =     -527.26863424


--------------------------------------------------------------------------------------------------------




--------------------------------------- Iteration      1(   3)  ---------------------------------------


     EDDAV:  cpu time     47.0568: real time     47.6177
       DOS:  cpu time      0.0023: real time      0.0025
    --------------------------------------------
      LOOP:  cpu time     47.0591: real time     47.6202

 eigenvalue-minimisations  :  4384
 total energy-change (2. order) :-0.1088627E+03  (-0.1084750E+03)
 number of electron     384.0000000 magnetization 
 augmentation part      384.0000000 magnetization 

 Free energy of the ion-electron system (eV)
  ---------------------------------------------------
  alpha Z        PSCENC =       745.90513244
  Ewald energy   TEWEN  =    -20729.40679516
  -Hartree energ DENC   =     -4434.56500172
  -exchange      EXHF   =         0.00000000
  -V(xc)+E(xc)   XCENC  =       570.86525726
  PAW double counting   =     18752.77991877   -17816.57094691
  entropy T*S    EENTRO =         0.00074053
  eigenvalues    EBANDS =      -186.99381694
  atomic energy  EATOM  =     22461.85434800
  Solvation  Ediel_sol  =         0.00000000
  ---------------------------------------------------
  free energy    TOTEN  =      -636.13116373 eV

  energy without entropy =     -636.13190427  energy(sigma->0) =     -636.13141058


--------------------------------------------------------------------------------------------------------




--------------------------------------- Iteration      1(   4)  ---------------------------------------


     EDDAV:  cpu time     46.3545: real time     46.8251
       DOS:  cpu time      0.0024: real time      0.0026
    --------------------------------------------
      LOOP:  cpu time     46.3569: real time     46.8277

 eigenvalue-minimisations  :  4328
 total energy-change (2. order) :-0.1053749E+01  (-0.1051386E+01)
 number of electron     384.0000000 magnetization 
 augmentation part      384.0000000 magnetization 

 Free energy of the ion-electron system (eV)
  ---------------------------------------------------
  alpha Z        PSCENC =       745.90513244
  Ewald energy   TEWEN  =    -20729.40679516
  -Hartree energ DENC   =     -4434.56500172
  -exchange      EXHF   =         0.00000000
  -V(xc)+E(xc)   XCENC  =       570.86525726
  PAW double counting   =     18752.77991877   -17816.57094691
  entropy T*S    EENTRO =         0.00074454
  eigenvalues    EBANDS =      -188.04756967
  atomic energy  EATOM  =     22461.85434800
  Solvation  Ediel_sol  =         0.00000000
  ---------------------------------------------------
  free energy    TOTEN  =      -637.18491246 eV

  energy without entropy =     -637.18565699  energy(sigma->0) =     -637.18516063


--------------------------------------------------------------------------------------------------------




--------------------------------------- Iteration      1(   5)  ---------------------------------------


     EDDAV:  cpu time     46.1812: real time     46.8649
       DOS:  cpu time      0.0023: real time      0.0024
    CHARGE:  cpu time      1.3256: real time      1.3386
    MIXING:  cpu time      0.0113: real time      0.0113
    --------------------------------------------
      LOOP:  cpu time     47.5204: real time     48.2172

 eigenvalue-minimisations  :  4312
 total energy-change (2. order) :-0.1631644E-01  (-0.1630289E-01)
 number of electron     384.0000506 magnetization 
 augmentation part       38.7225687 magnetization 

 Broyden mixing:
  rms(total) = 0.54124E+01    rms(broyden)= 0.54102E+01
  rms(prec ) = 0.70601E+01
  weight for this iteration     100.00

 Free energy of the ion-electron system (eV)
  ---------------------------------------------------
  alpha Z        PSCENC =       745.90513244
  Ewald energy   TEWEN  =    -20729.40679516
  -Hartree energ DENC   =     -4434.56500172
  -exchange      EXHF   =         0.00000000
  -V(xc)+E(xc)   XCENC  =       570.86525726
  PAW double counting   =     18752.77991877   -17816.57094691
  entropy T*S    EENTRO =         0.00074473
  eigenvalues    EBANDS =      -188.06388629
  atomic energy  EATOM  =     22461.85434800
  Solvation  Ediel_sol  =         0.00000000
  ---------------------------------------------------
  free energy    TOTEN  =      -637.20122889 eV

  energy without entropy =     -637.20197362  energy(sigma->0) =     -637.20147713


--------------------------------------------------------------------------------------------------------




--------------------------------------- Iteration      1(   6)  ---------------------------------------


    POTLOK:  cpu time      0.3182: real time      0.3209
    SETDIJ:  cpu time      0.0803: real time      0.0807
     EDDAV:  cpu time     44.8609: real time     45.2869
       DOS:  cpu time      0.0023: real time      0.0025
    CHARGE:  cpu time      1.3272: real time      1.3400
    MIXING:  cpu time      0.0106: real time      0.0107
    --------------------------------------------
      LOOP:  cpu time     46.5994: real time     47.0417

 eigenvalue-minimisations  :  4184
 total energy-change (2. order) : 0.7094014E+02  (-0.2621622E+02)
 number of electron     384.0000437 magnetization 
 augmentation part       33.5268134 magnetization 

 Broyden mixing:
  rms(total) = 0.19476E+01    rms(broyden)= 0.19455E+01
  rms(prec ) = 0.21881E+01
  weight for this iteration     100.00

 eigenvalues of (default mixing * dielectric matrix)
  average eigenvalue GAMMA=   1.0791
  1.0791

 Free energy of the ion-electron system (eV)
  ---------------------------------------------------
  alpha Z        PSCENC =       745.90513244
  Ewald energy   TEWEN  =    -20729.40679516
  -Hartree energ DENC   =     -5165.15312037
  -exchange      EXHF   =         0.00000000
  -V(xc)+E(xc)   XCENC  =       624.12756652
  PAW double counting   =     26204.05194514   -25284.83878853
  entropy T*S    EENTRO =         0.00055202
  eigenvalues    EBANDS =       577.19807386
  atomic energy  EATOM  =     22461.85434800
  Solvation  Ediel_sol  =         0.00000000
  ---------------------------------------------------
  free energy    TOTEN  =      -566.26108607 eV

  energy without entropy =     -566.26163809  energy(sigma->0) =     -566.26127008


--------------------------------------------------------------------------------------------------------




--------------------------------------- Iteration      1(   7)  ---------------------------------------


    POTLOK:  cpu time      0.3304: real time      0.3349
    SETDIJ:  cpu time      0.0804: real time      0.0809
     EDDAV:  cpu time     46.9148: real time     47.3834
       DOS:  cpu time      0.0023: real time      0.0037
    CHARGE:  cpu time      1.3296: real time      1.3429
    MIXING:  cpu time      0.0111: real time      0.0112
    --------------------------------------------
      LOOP:  cpu time     48.6686: real time     49.1570

 eigenvalue-minimisations  :  4368
 total energy-change (2. order) : 0.8161367E+00  (-0.1047520E+01)
 number of electron     384.0000422 magnetization 
 augmentation part       32.7462676 magnetization 

 Broyden mixing:
  rms(total) = 0.99593E+00    rms(broyden)= 0.99551E+00
  rms(prec ) = 0.11074E+01
  weight for this iteration     100.00

 eigenvalues of (default mixing * dielectric matrix)
  average eigenvalue GAMMA=   1.3861
  1.3584  1.4139

 Free energy of the ion-electron system (eV)
  ---------------------------------------------------
  alpha Z        PSCENC =       745.90513244
  Ewald energy   TEWEN  =    -20729.40679516
  -Hartree energ DENC   =     -5293.55195396
  -exchange      EXHF   =         0.00000000
  -V(xc)+E(xc)   XCENC  =       634.73840419
  PAW double counting   =     33465.09507709   -32547.70650714
  entropy T*S    EENTRO =         0.00049614
  eigenvalues    EBANDS =       697.62684901
  atomic energy  EATOM  =     22461.85434800
  Solvation  Ediel_sol  =         0.00000000
  ---------------------------------------------------
  free energy    TOTEN  =      -565.44494940 eV

  energy without entropy =     -565.44544554  energy(sigma->0) =     -565.44511478


--------------------------------------------------------------------------------------------------------




--------------------------------------- Iteration      1(   8)  ---------------------------------------


    POTLOK:  cpu time      0.3202: real time      0.3229
    SETDIJ:  cpu time      0.0804: real time      0.0809
     EDDAV:  cpu time     46.2250: real time     46.6864
       DOS:  cpu time      0.0023: real time      0.0025
    CHARGE:  cpu time      1.3299: real time      1.3429
    MIXING:  cpu time      0.0114: real time      0.0115
    --------------------------------------------
      LOOP:  cpu time     47.9691: real time     48.4471

 eigenvalue-minimisations  :  4296
 total energy-change (2. order) :-0.2326600E-01  (-0.5686044E-01)
 number of electron     384.0000425 magnetization 
 augmentation part       32.8925352 magnetization 

 Broyden mixing:
  rms(total) = 0.28225E+00    rms(broyden)= 0.28224E+00
  rms(prec ) = 0.33633E+00
  weight for this iteration     100.00

 eigenvalues of (default mixing * dielectric matrix)
  average eigenvalue GAMMA=   1.5959
  2.5168  1.1355  1.1355

 Free energy of the ion-electron system (eV)
  ---------------------------------------------------
  alpha Z        PSCENC =       745.90513244
  Ewald energy   TEWEN  =    -20729.40679516
  -Hartree energ DENC   =     -5309.86496291
  -exchange      EXHF   =         0.00000000
  -V(xc)+E(xc)   XCENC  =       637.53404378
  PAW double counting   =     38978.78592680   -38061.42607664
  entropy T*S    EENTRO =         0.00051692
  eigenvalues    EBANDS =       711.14965137
  atomic energy  EATOM  =     22461.85434800
  Solvation  Ediel_sol  =         0.00000000
  ---------------------------------------------------
  free energy    TOTEN  =      -565.46821540 eV

  energy without entropy =     -565.46873232  energy(sigma->0) =     -565.46838770


--------------------------------------------------------------------------------------------------------




--------------------------------------- Iteration      1(   9)  ---------------------------------------


    POTLOK:  cpu time      0.3230: real time      0.3258
    SETDIJ:  cpu time      0.0806: real time      0.0810
     EDDAV:  cpu time     46.8264: real time     47.2788
       DOS:  cpu time      0.0022: real time      0.0024
    CHARGE:  cpu time      1.3310: real time      1.3436
    MIXING:  cpu time      0.0118: real time      0.0119
    --------------------------------------------
      LOOP:  cpu time     48.5751: real time     49.0435

 eigenvalue-minimisations  :  4360
 total energy-change (2. order) :-0.2732686E-01  (-0.2117534E-01)
 number of electron     384.0000424 magnetization 
 augmentation part       32.7755153 magnetization 

 Broyden mixing:
  rms(total) = 0.89977E-01    rms(broyden)= 0.89931E-01
  rms(prec ) = 0.93081E-01
  weight for this iteration     100.00

 eigenvalues of (default mixing * dielectric matrix)
  average eigenvalue GAMMA=   1.7820
  1.0646  1.0646  2.4993  2.4993

 Free energy of the ion-electron system (eV)
  ---------------------------------------------------
  alpha Z        PSCENC =       745.90513244
  Ewald energy   TEWEN  =    -20729.40679516
  -Hartree energ DENC   =     -5344.09587392
  -exchange      EXHF   =         0.00000000
  -V(xc)+E(xc)   XCENC  =       640.87741305
  PAW double counting   =     41306.36833050   -40389.63835211
  entropy T*S    EENTRO =         0.00051427
  eigenvalues    EBANDS =       742.63974067
  atomic energy  EATOM  =     22461.85434800
  Solvation  Ediel_sol  =         0.00000000
  ---------------------------------------------------
  free energy    TOTEN  =      -565.49554226 eV

  energy without entropy =     -565.49605652  energy(sigma->0) =     -565.49571368


--------------------------------------------------------------------------------------------------------




--------------------------------------- Iteration      1(  10)  ---------------------------------------


    POTLOK:  cpu time      0.3279: real time      0.3306
    SETDIJ:  cpu time      0.0805: real time      0.0810
     EDDAV:  cpu time     46.0506: real time     46.4974
       DOS:  cpu time      0.0022: real time      0.0024
    CHARGE:  cpu time      1.3301: real time      1.3429
    MIXING:  cpu time      0.0130: real time      0.0131
    --------------------------------------------
      LOOP:  cpu time     47.8043: real time     48.2674

 eigenvalue-minimisations  :  4264
 total energy-change (2. order) :-0.3977958E-02  (-0.2683333E-02)
 number of electron     384.0000423 magnetization 
 augmentation part       32.7966134 magnetization 

 Broyden mixing:
  rms(total) = 0.24112E-01    rms(broyden)= 0.24088E-01
  rms(prec ) = 0.30396E-01
  weight for this iteration     100.00

 eigenvalues of (default mixing * dielectric matrix)
  average eigenvalue GAMMA=   1.5641
  2.6166  2.2555  0.9630  0.9630  1.0222

 Free energy of the ion-electron system (eV)
  ---------------------------------------------------
  alpha Z        PSCENC =       745.90513244
  Ewald energy   TEWEN  =    -20729.40679516
  -Hartree energ DENC   =     -5342.06740993
  -exchange      EXHF   =         0.00000000
  -V(xc)+E(xc)   XCENC  =       640.79904401
  PAW double counting   =     40490.21460539   -39573.35580024
  entropy T*S    EENTRO =         0.00050231
  eigenvalues    EBANDS =       740.55685295
  atomic energy  EATOM  =     22461.85434800
  Solvation  Ediel_sol  =         0.00000000
  ---------------------------------------------------
  free energy    TOTEN  =      -565.49952022 eV

  energy without entropy =     -565.50002253  energy(sigma->0) =     -565.49968765


--------------------------------------------------------------------------------------------------------




--------------------------------------- Iteration      1(  11)  ---------------------------------------


    POTLOK:  cpu time      0.3259: real time      0.3286
    SETDIJ:  cpu time      0.0807: real time      0.0811
     EDDAV:  cpu time     48.0521: real time     48.5098
       DOS:  cpu time      0.0023: real time      0.0025
    CHARGE:  cpu time      1.3280: real time      1.3408
    MIXING:  cpu time      0.0153: real time      0.0154
    --------------------------------------------
      LOOP:  cpu time     49.8042: real time     50.2782

 eigenvalue-minimisations  :  4504
 total energy-change (2. order) : 0.9278447E-03  (-0.5386323E-03)
 number of electron     384.0000423 magnetization 
 augmentation part       32.7882236 magnetization 

 Broyden mixing:
  rms(total) = 0.19657E-01    rms(broyden)= 0.19654E-01
  rms(prec ) = 0.21242E-01
  weight for this iteration     100.00

 eigenvalues of (default mixing * dielectric matrix)
  average eigenvalue GAMMA=   1.5944
  2.8483  2.5091  1.0593  1.0593  1.0453  1.0453

 Free energy of the ion-electron system (eV)
  ---------------------------------------------------
  alpha Z        PSCENC =       745.90513244
  Ewald energy   TEWEN  =    -20729.40679516
  -Hartree energ DENC   =     -5343.27600550
  -exchange      EXHF   =         0.00000000
  -V(xc)+E(xc)   XCENC  =       640.89978309
  PAW double counting   =     40587.96380440   -39671.14114988
  entropy T*S    EENTRO =         0.00050879
  eigenvalues    EBANDS =       741.70178144
  atomic energy  EATOM  =     22461.85434800
  Solvation  Ediel_sol  =         0.00000000
  ---------------------------------------------------
  free energy    TOTEN  =      -565.49859237 eV

  energy without entropy =     -565.49910116  energy(sigma->0) =     -565.49876197


--------------------------------------------------------------------------------------------------------




--------------------------------------- Iteration      1(  12)  ---------------------------------------


    POTLOK:  cpu time      0.3280: real time      0.3308
    SETDIJ:  cpu time      0.0809: real time      0.0814
     EDDAV:  cpu time     45.7771: real time     46.2165
       DOS:  cpu time      0.0023: real time      0.0025
    CHARGE:  cpu time      1.3307: real time      1.3433
    MIXING:  cpu time      0.0155: real time      0.0156
    --------------------------------------------
      LOOP:  cpu time     47.5344: real time     47.9901

 eigenvalue-minimisations  :  4248
 total energy-change (2. order) :-0.1077085E-04  (-0.2419712E-03)
 number of electron     384.0000424 magnetization 
 augmentation part       32.7948540 magnetization 

 Broyden mixing:
  rms(total) = 0.25989E-02    rms(broyden)= 0.25664E-02
  rms(prec ) = 0.33236E-02
  weight for this iteration     100.00

 eigenvalues of (default mixing * dielectric matrix)
  average eigenvalue GAMMA=   1.5161
  2.7944  2.4604  1.2080  1.0516  1.0516  1.0233  1.0233

 Free energy of the ion-electron system (eV)
  ---------------------------------------------------
  alpha Z        PSCENC =       745.90513244
  Ewald energy   TEWEN  =    -20729.40679516
  -Hartree energ DENC   =     -5342.60041018
  -exchange      EXHF   =         0.00000000
  -V(xc)+E(xc)   XCENC  =       640.85721275
  PAW double counting   =     40433.88295863   -39517.03489567
  entropy T*S    EENTRO =         0.00051151
  eigenvalues    EBANDS =       741.04333453
  atomic energy  EATOM  =     22461.85434800
  Solvation  Ediel_sol  =         0.00000000
  ---------------------------------------------------
  free energy    TOTEN  =      -565.49860314 eV

  energy without entropy =     -565.49911465  energy(sigma->0) =     -565.49877365


--------------------------------------------------------------------------------------------------------




--------------------------------------- Iteration      1(  13)  ---------------------------------------


    POTLOK:  cpu time      0.3268: real time      0.3296
    SETDIJ:  cpu time      0.0808: real time      0.0813
     EDDAV:  cpu time     45.9945: real time     46.4569
       DOS:  cpu time      0.0023: real time      0.0025
    CHARGE:  cpu time      1.3284: real time      1.3411
    MIXING:  cpu time      0.0170: real time      0.0171
    --------------------------------------------
      LOOP:  cpu time     47.7497: real time     48.2285

 eigenvalue-minimisations  :  4280
 total energy-change (2. order) : 0.8343264E-05  (-0.1655419E-04)
 number of electron     384.0000424 magnetization 
 augmentation part       32.7930595 magnetization 

 Broyden mixing:
  rms(total) = 0.17481E-02    rms(broyden)= 0.17475E-02
  rms(prec ) = 0.19560E-02
  weight for this iteration     100.00

 eigenvalues of (default mixing * dielectric matrix)
  average eigenvalue GAMMA=   1.5124
  2.8098  2.4545  1.7812  1.0340  1.0340  1.0748  1.0748  0.8366

 Free energy of the ion-electron system (eV)
  ---------------------------------------------------
  alpha Z        PSCENC =       745.90513244
  Ewald energy   TEWEN  =    -20729.40679516
  -Hartree energ DENC   =     -5342.72335731
  -exchange      EXHF   =         0.00000000
  -V(xc)+E(xc)   XCENC  =       640.86416733
  PAW double counting   =     40442.43082257   -39525.58951151
  entropy T*S    EENTRO =         0.00051058
  eigenvalues    EBANDS =       741.16608827
  atomic energy  EATOM  =     22461.85434800
  Solvation  Ediel_sol  =         0.00000000
  ---------------------------------------------------
  free energy    TOTEN  =      -565.49859480 eV

  energy without entropy =     -565.49910538  energy(sigma->0) =     -565.49876499


--------------------------------------------------------------------------------------------------------




--------------------------------------- Iteration      1(  14)  ---------------------------------------


    POTLOK:  cpu time      0.3236: real time      0.3263
    SETDIJ:  cpu time      0.0810: real time      0.0814
     EDDAV:  cpu time     46.6631: real time     47.1043
       DOS:  cpu time      0.0023: real time      0.0025
    CHARGE:  cpu time      1.3301: real time      1.3429
    MIXING:  cpu time      0.0177: real time      0.0178
    --------------------------------------------
      LOOP:  cpu time     48.4178: real time     48.8753

 eigenvalue-minimisations  :  4336
 total energy-change (2. order) : 0.4841058E-07  (-0.3077776E-05)
 number of electron     384.0000424 magnetization 
 augmentation part       32.7938569 magnetization 

 Broyden mixing:
  rms(total) = 0.68804E-03    rms(broyden)= 0.68715E-03
  rms(prec ) = 0.72779E-03
  weight for this iteration     100.00

 eigenvalues of (default mixing * dielectric matrix)
  average eigenvalue GAMMA=   1.5195
  2.8362  2.4946  2.1581  1.0166  1.0166  1.0997  1.0997  0.9772  0.9772

 Free energy of the ion-electron system (eV)
  ---------------------------------------------------
  alpha Z        PSCENC =       745.90513244
  Ewald energy   TEWEN  =    -20729.40679516
  -Hartree energ DENC   =     -5342.63697679
  -exchange      EXHF   =         0.00000000
  -V(xc)+E(xc)   XCENC  =       640.85627240
  PAW double counting   =     40434.95754921   -39518.11418377
  entropy T*S    EENTRO =         0.00051040
  eigenvalues    EBANDS =       741.08554852
  atomic energy  EATOM  =     22461.85434800
  Solvation  Ediel_sol  =         0.00000000
  ---------------------------------------------------
  free energy    TOTEN  =      -565.49859475 eV

  energy without entropy =     -565.49910515  energy(sigma->0) =     -565.49876488


--------------------------------------------------------------------------------------------------------




--------------------------------------- Iteration      1(  15)  ---------------------------------------


    POTLOK:  cpu time      0.3295: real time      0.3323
    SETDIJ:  cpu time      0.0809: real time      0.0813
     EDDAV:  cpu time     30.5567: real time     30.8494
       DOS:  cpu time      0.0025: real time      0.0028
    --------------------------------------------
      LOOP:  cpu time     30.9695: real time     31.2658

 eigenvalue-minimisations  :  2472
 total energy-change (2. order) : 0.3436107E-06  (-0.1272277E-06)
 number of electron     384.0000424 magnetization 
 augmentation part       32.7938569 magnetization 

 Free energy of the ion-electron system (eV)
  ---------------------------------------------------
  alpha Z        PSCENC =       745.90513244
  Ewald energy   TEWEN  =    -20729.40679516
  -Hartree energ DENC   =     -5342.65476777
  -exchange      EXHF   =         0.00000000
  -V(xc)+E(xc)   XCENC  =       640.85670593
  PAW double counting   =     40431.80054696   -39514.95746560
  entropy T*S    EENTRO =         0.00051049
  eigenvalues    EBANDS =       741.10319031
  atomic energy  EATOM  =     22461.85434800
  Solvation  Ediel_sol  =         0.00000000
  ---------------------------------------------------
  free energy    TOTEN  =      -565.49859441 eV

  energy without entropy =     -565.49910489  energy(sigma->0) =     -565.49876457


--------------------------------------------------------------------------------------------------------




 average (electrostatic) potential at core
  the test charge radii are     1.0406  0.7215
  (the norm of the test charge is              1.0000)
       1 -68.1475       2 -68.1475       3 -68.1475       4 -68.1475       5 -68.1475
       6 -68.1475       7 -68.1475       8 -68.1475       9 -68.1475      10 -68.1475
      11 -68.1475      12 -68.1475      13 -68.1475      14 -68.1475      15 -68.1475
      16 -68.1475      17 -68.1475      18 -68.1475      19 -68.1475      20 -68.1475
      21 -68.1475      22 -68.1475      23 -68.1475      24 -68.1475      25 -68.1475
      26 -68.1475      27 -68.1475      28 -68.1475      29 -68.1475      30 -68.1475
      31 -68.1475      32 -68.1475      33 -64.5393      34 -64.5393      35 -64.5393
      36 -64.5393      37 -64.5393      38 -64.5393      39 -64.5393      40 -64.5393
      41 -64.5393      42 -64.5393      43 -64.5393      44 -64.5393      45 -64.5393
      46 -64.5393      47 -64.5393      48 -64.5393      49 -64.5393      50 -64.5393
      51 -64.5393      52 -64.5393      53 -64.5393      54 -64.5393      55 -64.5393
      56 -64.5393      57 -64.5393      58 -64.5393      59 -64.5393      60 -64.5393
      61 -64.5393      62 -64.5393      63 -64.5393      64 -64.5393      65 -64.3357
      66 -64.3357      67 -64.3357      68 -64.3357      69 -64.3357      70 -64.3357
      71 -64.3357      72 -64.3357      73 -64.3357      74 -64.3357      75 -64.3357
      76 -64.3357      77 -64.3357      78 -64.3357      79 -64.3357      80 -64.3357



 E-fermi :   8.9794     XC(G=0): -12.8125     alpha+bet :-20.6724

 Fermi energy:         8.9794224797

 k-point     1 :       0.1250    0.1250    0.1250
  band No.  band energies     occupation 
      1     -11.9640      2.00000
      2     -11.1856      2.00000
      3     -11.1480      2.00000
      4     -10.7138      2.00000
      5     -10.6617      2.00000
      6     -10.6225      2.00000
      7     -10.4582      2.00000
      8     -10.0615      2.00000
      9     -10.0415      2.00000
     10      -9.9600      2.00000
     11      -9.9484      2.00000
     12      -9.7442      2.00000
     13      -9.6196      2.00000
     14      -9.5595      2.00000
     15      -9.4346      2.00000
     16      -9.2486      2.00000
     17      -9.2227      2.00000
     18      -9.0940      2.00000
     19      -9.0585      2.00000
     20      -9.0312      2.00000
     21      -9.0018      2.00000
     22      -8.9928      2.00000
     23      -8.8957      2.00000
     24      -8.8085      2.00000
     25      -8.7889      2.00000
     26      -8.7850      2.00000
     27      -8.7194      2.00000
     28      -8.6228      2.00000
     29      -8.5554      2.00000
     30      -8.4153      2.00000
     31      -8.4106      2.00000
     32      -8.4083      2.00000
     33      -8.2688      2.00000
     34      -8.2283      2.00000
     35      -8.1916      2.00000
     36      -8.1838      2.00000
     37      -8.1640      2.00000
     38      -8.1535      2.00000
     39      -8.1432      2.00000
     40      -8.1045      2.00000
     41      -8.0281      2.00000
     42      -8.0181      2.00000
     43      -8.0018      2.00000
     44      -7.9584      2.00000
     45      -7.8532      2.00000
     46      -7.7824      2.00000
     47      -7.6811      2.00000
     48      -7.6612      2.00000
     49       1.3836      2.00000
     50       1.4507      2.00000
     51       1.4814      2.00000
     52       1.5614      2.00000
     53       1.5914      2.00000
     54       1.6231      2.00000
     55       1.7021      2.00000
     56       1.9759      2.00000
     57       1.9938      2.00000
     58       1.9943      2.00000
     59       1.9970      2.00000
     60       2.0497      2.00000
     61       2.0732      2.00000
     62       2.1440      2.00000
     63       2.2118      2.00000
     64       2.2582      2.00000
     65       2.2670      2.00000
     66       2.3197      2.00000
     67       2.4665      2.00000
     68       2.6371      2.00000
     69       2.6855      2.00000
     70       2.7302      2.00000
     71       2.7972      2.00000
     72       2.8687      2.00000
     73       2.9863      2.00000
     74       3.0329      2.00000
     75       3.0524      2.00000
     76       3.2009      2.00000
     77       3.2294      2.00000
     78       3.2526      2.00000
     79       3.3349      2.00000
     80       3.4039      2.00000
     81       3.4179      2.00000
     82       3.4226      2.00000
     83       3.4408      2.00000
     84       3.5640      2.00000
     85       3.5933      2.00000
     86       3.6332      2.00000
     87       3.7277      2.00000
     88       3.7295      2.00000
     89       3.7481      2.00000
     90       3.7657      2.00000
     91       3.8450      2.00000
     92       3.9115      2.00000
     93       4.0251      2.00000
     94       4.0874      2.00000
     95       4.2510      2.00000
     96       4.3919      2.00000
     97       4.5162      2.00000
     98       4.6570      2.00000
     99       4.7073      2.00000
    100       4.7091      2.00000
    101       4.8141      2.00000
    102       4.8361      2.00000
    103       4.8800      2.00000
    104       4.9584      2.00000
    105       5.0445      2.00000
    106       5.1105      2.00000
    107       5.2990      2.00000
    108       5.3456      2.00000
    109       5.4222      2.00000
    110       5.4410      2.00000
    111       5.5003      2.00000
    112       5.5560      2.00000
    113       5.6361      2.00000
    114       5.6516      2.00000
    115       5.6794      2.00000
    116       5.6982      2.00000
    117       5.7442      2.00000
    118       5.7750      2.00000
    119       5.8023      2.00000
    120       5.9744      2.00000
    121       6.0122      2.00000
    122       6.0243      2.00000
    123       6.0273      2.00000
    124       6.0447      2.00000
    125       6.0811      2.00000
    126       6.1297      2.00000
    127       6.2121      2.00000
    128       6.2464      2.00000
    129       6.3857      2.00000
    130       6.4429      2.00000
    131       6.5356      2.00000
    132       6.5575      2.00000
    133       6.6436      2.00000
    134       6.6452      2.00000
    135       6.8031      2.00000
    136       6.8211      2.00000
    137       6.8290      2.00000
    138       6.8717      2.00000
    139       6.8973      2.00000
    140       6.9885      2.00000
    141       7.0047      2.00000
    142       7.0168      2.00000
    143       7.0659      2.00000
    144       7.0738      2.00000
    145       7.0865      2.00000
    146       7.1080      2.00000
    147       7.1456      2.00000
    148       7.1579      2.00000
    149       7.2045      2.00000
    150       7.2703      2.00000
    151       7.3616      2.00000
    152       7.3867      2.00000
    153       7.3875      2.00000
    154       7.4216      2.00000
    155       7.4424      2.00000
    156       7.4476      2.00000
    157       7.5603      2.00000
    158       7.5650      2.00000
    159       7.6650      2.00000
[...]
     0.000000000  9.288629300  0.000000000     0.000000000  0.107658511  0.000000000
     0.000000000  0.000000000  6.601600610     0.000000000  0.000000000  0.151478415

  length of vectors
     9.031952798  9.288629300  6.601600610     0.110718028  0.107658511  0.151478415


 FORCES acting on ions
    electron-ion (+dipol)            ewald-force                    non-local-force                 convergence-correction
 -----------------------------------------------------------------------------------------------
   0.390E+01 -.342E+01 0.186E+02   -.372E+01 0.798E+00 -.178E+02   -.207E+00 0.311E+01 -.116E+01   0.516E-04 -.123E-04 0.896E-04
   0.390E+01 -.342E+01 0.186E+02   -.372E+01 0.798E+00 -.178E+02   -.207E+00 0.311E+01 -.116E+01   0.516E-04 -.913E-05 0.894E-04
   0.390E+01 -.342E+01 0.186E+02   -.372E+01 0.798E+00 -.178E+02   -.207E+00 0.311E+01 -.116E+01   0.500E-04 -.123E-04 0.895E-04
   0.390E+01 -.342E+01 0.186E+02   -.372E+01 0.798E+00 -.178E+02   -.207E+00 0.311E+01 -.116E+01   0.500E-04 -.913E-05 0.893E-04
   0.390E+01 0.342E+01 -.186E+02   -.372E+01 -.798E+00 0.178E+02   -.207E+00 -.311E+01 0.116E+01   0.516E-04 0.107E-04 -.890E-04
   0.390E+01 0.342E+01 -.186E+02   -.372E+01 -.798E+00 0.178E+02   -.207E+00 -.311E+01 0.116E+01   0.516E-04 0.107E-04 -.890E-04
   0.390E+01 0.342E+01 -.186E+02   -.372E+01 -.798E+00 0.178E+02   -.207E+00 -.311E+01 0.116E+01   0.500E-04 0.107E-04 -.889E-04
   0.390E+01 0.342E+01 -.186E+02   -.372E+01 -.798E+00 0.178E+02   -.207E+00 -.311E+01 0.116E+01   0.500E-04 0.107E-04 -.889E-04
   -.390E+01 -.342E+01 -.186E+02   0.372E+01 0.798E+00 0.178E+02   0.207E+00 0.311E+01 0.116E+01   -.500E-04 -.102E-04 -.897E-04
   -.390E+01 -.342E+01 -.186E+02   0.372E+01 0.798E+00 0.178E+02   0.207E+00 0.311E+01 0.116E+01   -.500E-04 -.111E-04 -.897E-04
   -.390E+01 -.342E+01 -.186E+02   0.372E+01 0.798E+00 0.178E+02   0.207E+00 0.311E+01 0.116E+01   -.516E-04 -.102E-04 -.898E-04
   -.390E+01 -.342E+01 -.186E+02   0.372E+01 0.798E+00 0.178E+02   0.207E+00 0.311E+01 0.116E+01   -.516E-04 -.112E-04 -.898E-04
   -.390E+01 0.342E+01 0.186E+02   0.372E+01 -.798E+00 -.178E+02   0.207E+00 -.311E+01 -.116E+01   -.500E-04 0.123E-04 0.893E-04
   -.390E+01 0.342E+01 0.186E+02   0.372E+01 -.798E+00 -.178E+02   0.207E+00 -.311E+01 -.116E+01   -.500E-04 0.907E-05 0.891E-04
   -.390E+01 0.342E+01 0.186E+02   0.372E+01 -.798E+00 -.178E+02   0.207E+00 -.311E+01 -.116E+01   -.516E-04 0.123E-04 0.893E-04
   -.390E+01 0.342E+01 0.186E+02   0.372E+01 -.798E+00 -.178E+02   0.207E+00 -.311E+01 -.116E+01   -.516E-04 0.907E-05 0.892E-04
   -.390E+01 0.342E+01 -.186E+02   0.372E+01 -.798E+00 0.178E+02   0.207E+00 -.311E+01 0.116E+01   -.507E-04 0.123E-04 -.890E-04
   -.390E+01 0.342E+01 -.186E+02   0.372E+01 -.798E+00 0.178E+02   0.207E+00 -.311E+01 0.116E+01   -.507E-04 0.907E-05 -.889E-04
   -.390E+01 0.342E+01 -.186E+02   0.372E+01 -.798E+00 0.178E+02   0.207E+00 -.311E+01 0.116E+01   -.508E-04 0.123E-04 -.891E-04
   -.390E+01 0.342E+01 -.186E+02   0.372E+01 -.798E+00 0.178E+02   0.207E+00 -.311E+01 0.116E+01   -.508E-04 0.907E-05 -.889E-04
   -.390E+01 -.342E+01 0.186E+02   0.372E+01 0.798E+00 -.178E+02   0.207E+00 0.311E+01 -.116E+01   -.507E-04 -.102E-04 0.894E-04
   -.390E+01 -.342E+01 0.186E+02   0.372E+01 0.798E+00 -.178E+02   0.207E+00 0.311E+01 -.116E+01   -.507E-04 -.112E-04 0.895E-04
   -.390E+01 -.342E+01 0.186E+02   0.372E+01 0.798E+00 -.178E+02   0.207E+00 0.311E+01 -.116E+01   -.508E-04 -.102E-04 0.895E-04
   -.390E+01 -.342E+01 0.186E+02   0.372E+01 0.798E+00 -.178E+02   0.207E+00 0.311E+01 -.116E+01   -.508E-04 -.112E-04 0.895E-04
   0.390E+01 0.342E+01 0.186E+02   -.372E+01 -.798E+00 -.178E+02   -.207E+00 -.311E+01 -.116E+01   0.509E-04 0.107E-04 0.892E-04
   0.390E+01 0.342E+01 0.186E+02   -.372E+01 -.798E+00 -.178E+02   -.207E+00 -.311E+01 -.116E+01   0.509E-04 0.107E-04 0.892E-04
   0.390E+01 0.342E+01 0.186E+02   -.372E+01 -.798E+00 -.178E+02   -.207E+00 -.311E+01 -.116E+01   0.507E-04 0.107E-04 0.892E-04
   0.390E+01 0.342E+01 0.186E+02   -.372E+01 -.798E+00 -.178E+02   -.207E+00 -.311E+01 -.116E+01   0.507E-04 0.107E-04 0.892E-04
   0.390E+01 -.342E+01 -.186E+02   -.372E+01 0.798E+00 0.178E+02   -.207E+00 0.311E+01 0.116E+01   0.509E-04 -.123E-04 -.898E-04
   0.390E+01 -.342E+01 -.186E+02   -.372E+01 0.798E+00 0.178E+02   -.207E+00 0.311E+01 0.116E+01   0.509E-04 -.913E-05 -.896E-04
   0.390E+01 -.342E+01 -.186E+02   -.372E+01 0.798E+00 0.178E+02   -.207E+00 0.311E+01 0.116E+01   0.507E-04 -.123E-04 -.898E-04
   0.390E+01 -.342E+01 -.186E+02   -.372E+01 0.798E+00 0.178E+02   -.207E+00 0.311E+01 0.116E+01   0.507E-04 -.913E-05 -.896E-04
   0.757E+01 0.371E+01 -.206E+02   -.618E+01 -.294E+01 0.220E+02   -.124E+01 -.639E+00 -.120E+01   -.802E-04 0.400E-04 -.546E-03
   0.757E+01 0.371E+01 -.206E+02   -.618E+01 -.294E+01 0.220E+02   -.124E+01 -.639E+00 -.120E+01   -.802E-04 0.470E-04 -.546E-03
   0.757E+01 0.371E+01 -.206E+02   -.618E+01 -.294E+01 0.220E+02   -.124E+01 -.639E+00 -.120E+01   -.835E-04 0.400E-04 -.545E-03
   0.757E+01 0.371E+01 -.206E+02   -.618E+01 -.294E+01 0.220E+02   -.124E+01 -.639E+00 -.120E+01   -.835E-04 0.470E-04 -.546E-03
   0.757E+01 -.371E+01 0.206E+02   -.618E+01 0.294E+01 -.220E+02   -.124E+01 0.639E+00 0.120E+01   -.802E-04 -.439E-04 0.547E-03
   0.757E+01 -.371E+01 0.206E+02   -.618E+01 0.294E+01 -.220E+02   -.124E+01 0.639E+00 0.120E+01   -.802E-04 -.431E-04 0.547E-03
   0.757E+01 -.371E+01 0.206E+02   -.618E+01 0.294E+01 -.220E+02   -.124E+01 0.639E+00 0.120E+01   -.835E-04 -.440E-04 0.547E-03
   0.757E+01 -.371E+01 0.206E+02   -.618E+01 0.294E+01 -.220E+02   -.124E+01 0.639E+00 0.120E+01   -.835E-04 -.431E-04 0.547E-03
   -.757E+01 0.371E+01 0.206E+02   0.618E+01 -.294E+01 -.220E+02   0.124E+01 -.639E+00 0.120E+01   0.836E-04 0.451E-04 0.547E-03
   -.757E+01 0.371E+01 0.206E+02   0.618E+01 -.294E+01 -.220E+02   0.124E+01 -.639E+00 0.120E+01   0.836E-04 0.420E-04 0.547E-03
   -.757E+01 0.371E+01 0.206E+02   0.618E+01 -.294E+01 -.220E+02   0.124E+01 -.639E+00 0.120E+01   0.798E-04 0.451E-04 0.547E-03
   -.757E+01 0.371E+01 0.206E+02   0.618E+01 -.294E+01 -.220E+02   0.124E+01 -.639E+00 0.120E+01   0.798E-04 0.420E-04 0.547E-03
   -.757E+01 -.371E+01 -.206E+02   0.618E+01 0.294E+01 0.220E+02   0.124E+01 0.639E+00 -.120E+01   0.836E-04 -.397E-04 -.548E-03
   -.757E+01 -.371E+01 -.206E+02   0.618E+01 0.294E+01 0.220E+02   0.124E+01 0.639E+00 -.120E+01   0.836E-04 -.475E-04 -.548E-03
   -.757E+01 -.371E+01 -.206E+02   0.618E+01 0.294E+01 0.220E+02   0.124E+01 0.639E+00 -.120E+01   0.798E-04 -.397E-04 -.548E-03
   -.757E+01 -.371E+01 -.206E+02   0.618E+01 0.294E+01 0.220E+02   0.124E+01 0.639E+00 -.120E+01   0.798E-04 -.475E-04 -.548E-03
   -.757E+01 -.371E+01 0.206E+02   0.618E+01 0.294E+01 -.220E+02   0.124E+01 0.639E+00 0.120E+01   0.812E-04 -.397E-04 0.547E-03
   -.757E+01 -.371E+01 0.206E+02   0.618E+01 0.294E+01 -.220E+02   0.124E+01 0.639E+00 0.120E+01   0.812E-04 -.475E-04 0.547E-03
   -.757E+01 -.371E+01 0.206E+02   0.618E+01 0.294E+01 -.220E+02   0.124E+01 0.639E+00 0.120E+01   0.827E-04 -.397E-04 0.547E-03
   -.757E+01 -.371E+01 0.206E+02   0.618E+01 0.294E+01 -.220E+02   0.124E+01 0.639E+00 0.120E+01   0.827E-04 -.475E-04 0.547E-03
   -.757E+01 0.371E+01 -.206E+02   0.618E+01 -.294E+01 0.220E+02   0.124E+01 -.639E+00 -.120E+01   0.812E-04 0.451E-04 -.546E-03
   -.757E+01 0.371E+01 -.206E+02   0.618E+01 -.294E+01 0.220E+02   0.124E+01 -.639E+00 -.120E+01   0.812E-04 0.420E-04 -.546E-03
   -.757E+01 0.371E+01 -.206E+02   0.618E+01 -.294E+01 0.220E+02   0.124E+01 -.639E+00 -.120E+01   0.827E-04 0.451E-04 -.546E-03
   -.757E+01 0.371E+01 -.206E+02   0.618E+01 -.294E+01 0.220E+02   0.124E+01 -.639E+00 -.120E+01   0.827E-04 0.420E-04 -.546E-03
   0.757E+01 -.371E+01 -.206E+02   -.618E+01 0.294E+01 0.220E+02   -.124E+01 0.639E+00 -.120E+01   -.808E-04 -.439E-04 -.548E-03
   0.757E+01 -.371E+01 -.206E+02   -.618E+01 0.294E+01 0.220E+02   -.124E+01 0.639E+00 -.120E+01   -.808E-04 -.431E-04 -.548E-03
   0.757E+01 -.371E+01 -.206E+02   -.618E+01 0.294E+01 0.220E+02   -.124E+01 0.639E+00 -.120E+01   -.829E-04 -.440E-04 -.548E-03
   0.757E+01 -.371E+01 -.206E+02   -.618E+01 0.294E+01 0.220E+02   -.124E+01 0.639E+00 -.120E+01   -.829E-04 -.431E-04 -.548E-03
   0.757E+01 0.371E+01 0.206E+02   -.618E+01 -.294E+01 -.220E+02   -.124E+01 -.639E+00 0.120E+01   -.808E-04 0.400E-04 0.547E-03
   0.757E+01 0.371E+01 0.206E+02   -.618E+01 -.294E+01 -.220E+02   -.124E+01 -.639E+00 0.120E+01   -.808E-04 0.470E-04 0.547E-03
   0.757E+01 0.371E+01 0.206E+02   -.618E+01 -.294E+01 -.220E+02   -.124E+01 -.639E+00 0.120E+01   -.830E-04 0.400E-04 0.547E-03
   0.757E+01 0.371E+01 0.206E+02   -.618E+01 -.294E+01 -.220E+02   -.124E+01 -.639E+00 0.120E+01   -.829E-04 0.471E-04 0.547E-03
   -.224E+02 -.428E-04 -.340E-04   0.237E+02 0.131E-04 0.448E-04   -.103E+01 0.324E-19 0.656E-19   -.182E-03 -.228E-05 -.123E-05
   -.224E+02 -.404E-04 -.293E-04   0.237E+02 -.470E-05 0.533E-05   -.103E+01 0.960E-19 -.660E-19   -.182E-03 0.227E-05 -.635E-06
   -.224E+02 -.428E-04 -.340E-04   0.237E+02 0.131E-04 0.448E-04   -.103E+01 0.154E-18 0.149E-18   -.185E-03 -.228E-05 -.123E-05
   -.224E+02 -.404E-04 -.293E-04   0.237E+02 -.470E-05 0.533E-05   -.103E+01 0.244E-18 0.135E-18   -.185E-03 0.227E-05 -.635E-06
   0.224E+02 -.415E-04 -.384E-04   -.237E+02 -.159E-05 -.208E-04   0.103E+01 0.156E-19 0.104E-18   0.185E-03 0.312E-05 0.675E-06
   0.224E+02 -.434E-04 -.336E-04   -.237E+02 0.173E-04 -.475E-04   0.103E+01 -.462E-19 0.321E-19   0.185E-03 -.313E-05 0.121E-05
   0.224E+02 -.415E-04 -.384E-04   -.237E+02 -.159E-05 -.208E-04   0.103E+01 -.168E-19 0.154E-18   0.182E-03 0.312E-05 0.675E-06
   0.224E+02 -.434E-04 -.336E-04   -.237E+02 0.173E-04 -.475E-04   0.103E+01 -.452E-19 -.199E-19   0.182E-03 -.313E-05 0.121E-05
   0.224E+02 -.372E-04 -.492E-04   -.237E+02 -.437E-05 0.131E-04   0.103E+01 0.650E-19 -.790E-19   0.183E-03 0.312E-05 -.663E-06
   0.224E+02 -.392E-04 -.540E-04   -.237E+02 0.145E-04 0.399E-04   0.103E+01 -.947E-19 -.100E-18   0.183E-03 -.313E-05 -.120E-05
   0.224E+02 -.372E-04 -.492E-04   -.237E+02 -.437E-05 0.131E-04   0.103E+01 0.265E-19 -.103E-19   0.185E-03 0.312E-05 -.663E-06
   0.224E+02 -.392E-04 -.540E-04   -.237E+02 0.145E-04 0.399E-04   0.103E+01 -.408E-19 -.639E-19   0.185E-03 -.313E-05 -.120E-05
   -.224E+02 -.406E-04 -.137E-04   0.237E+02 0.159E-04 -.525E-04   -.103E+01 0.125E-18 -.205E-19   -.182E-03 -.228E-05 0.124E-05
   -.224E+02 -.381E-04 -.184E-04   0.237E+02 -.192E-05 -.130E-04   -.103E+01 0.121E-18 -.131E-18   -.182E-03 0.227E-05 0.647E-06
   -.224E+02 -.406E-04 -.137E-04   0.237E+02 0.159E-04 -.525E-04   -.103E+01 0.388E-19 -.129E-18   -.185E-03 -.228E-05 0.124E-05
   -.224E+02 -.381E-04 -.184E-04   0.237E+02 -.192E-05 -.130E-04   -.103E+01 0.140E-19 -.754E-19   -.185E-03 0.227E-05 0.647E-06
 -----------------------------------------------------------------------------------------------
   0.455E-02 -.213E-02 -.730E-03   0.210E-12 0.107E-12 0.946E-13   -.266E-14 0.711E-14 -.888E-15   0.106E-06 -.250E-07 0.561E-08


 POSITION                                       TOTAL-FORCE (eV/Angst)
 -----------------------------------------------------------------------------------
      1.13939      0.14581      2.57455        -0.022667      0.485380     -0.347329
      1.13939      4.79012      2.57455        -0.022667      0.485380     -0.347329
      5.65536      0.14581      2.57455        -0.022667      0.485380     -0.347329
      5.65536      4.79012      2.57455        -0.022667      0.485380     -0.347329
      1.13939      2.17635      4.02705        -0.022667     -0.485380      0.347329
      1.13939      6.82067      4.02705        -0.022667     -0.485380      0.347329
      5.65536      2.17635      4.02705        -0.022667     -0.485380      0.347329
      5.65536      6.82067      4.02705        -0.022667     -0.485380      0.347329
      1.11860      2.46796      0.72625         0.022667      0.485380      0.347329
      1.11860      7.11228      0.72625         0.022667      0.485380      0.347329
      5.63458      2.46796      0.72625         0.022667      0.485380      0.347329
      5.63458      7.11228      0.72625         0.022667      0.485380      0.347329
      1.11860      4.49851      5.87535         0.022667     -0.485380     -0.347329
      1.11860      9.14282      5.87535         0.022667     -0.485380     -0.347329
      5.63458      4.49851      5.87535         0.022667     -0.485380     -0.347329
      5.63458      9.14282      5.87535         0.022667     -0.485380     -0.347329
      3.37659      4.49851      4.02705         0.022667     -0.485380      0.347329
      3.37659      9.14282      4.02705         0.022667     -0.485380      0.347329
      7.89257      4.49851      4.02705         0.022667     -0.485380      0.347329
      7.89257      9.14282      4.02705         0.022667     -0.485380      0.347329
      3.37659      2.46796      2.57455         0.022667      0.485380     -0.347329
      3.37659      7.11228      2.57455         0.022667      0.485380     -0.347329
      7.89257      2.46796      2.57455         0.022667      0.485380     -0.347329
      7.89257      7.11228      2.57455         0.022667      0.485380     -0.347329
      3.39737      2.17635      5.87535        -0.022667     -0.485380     -0.347329
      3.39737      6.82067      5.87535        -0.022667     -0.485380     -0.347329
      7.91335      2.17635      5.87535        -0.022667     -0.485380     -0.347329
      7.91335      6.82067      5.87535        -0.022667     -0.485380     -0.347329
      3.39737      0.14581      0.72625        -0.022667      0.485380      0.347329
      3.39737      4.79012      0.72625        -0.022667      0.485380      0.347329
      7.91335      0.14581      0.72625        -0.022667      0.485380      0.347329
      7.91335      4.79012      0.72625        -0.022667      0.485380      0.347329
      0.48354      0.47554      4.31843         0.160533      0.138057      0.212763
      0.48354      5.11985      4.31843         0.160533      0.138057      0.212763
      4.99951      0.47554      4.31843         0.160533      0.138057      0.212763
      4.99951      5.11985      4.31843         0.160533      0.138057      0.212763
      0.48354      1.84662      2.28317         0.160533     -0.138057     -0.212763
      0.48354      6.49094      2.28317         0.160533     -0.138057     -0.212763
      4.99951      1.84662      2.28317         0.160533     -0.138057     -0.212763
      4.99951      6.49094      2.28317         0.160533     -0.138057     -0.212763
      1.77445      2.79769      5.58397        -0.160533      0.138057     -0.212763
      1.77445      7.44201      5.58397        -0.160533      0.138057     -0.212763
      6.29043      2.79769      5.58397        -0.160533      0.138057     -0.212763
      6.29043      7.44201      5.58397        -0.160533      0.138057     -0.212763
      1.77445      4.16878      1.01763        -0.160533     -0.138057      0.212763
      1.77445      8.81309      1.01763        -0.160533     -0.138057      0.212763
      6.29043      4.16878      1.01763        -0.160533     -0.138057      0.212763
      6.29043      8.81309      1.01763        -0.160533     -0.138057      0.212763
      4.03244      4.16878      2.28317        -0.160533     -0.138057     -0.212763
      4.03244      8.81309      2.28317        -0.160533     -0.138057     -0.212763
      8.54842      4.16878      2.28317        -0.160533     -0.138057     -0.212763
      8.54842      8.81309      2.28317        -0.160533     -0.138057     -0.212763
      4.03244      2.79769      4.31843        -0.160533      0.138057      0.212763
      4.03244      7.44201      4.31843        -0.160533      0.138057      0.212763
      8.54842      2.79769      4.31843        -0.160533      0.138057      0.212763
      8.54842      7.44201      4.31843        -0.160533      0.138057      0.212763
      2.74153      1.84662      1.01763         0.160533     -0.138057      0.212763
      2.74153      6.49094      1.01763         0.160533     -0.138057      0.212763
      7.25750      1.84662      1.01763         0.160533     -0.138057      0.212763
      7.25750      6.49094      1.01763         0.160533     -0.138057      0.212763
      2.74153      0.47554      5.58397         0.160533      0.138057     -0.212763
      2.74153      5.11985      5.58397         0.160533      0.138057     -0.212763
      7.25750      0.47554      5.58397         0.160533      0.138057     -0.212763
      7.25750      5.11985      5.58397         0.160533      0.138057     -0.212763
      0.22665      1.16108      0.00000         0.229583      0.000000     -0.000000
      0.22665      5.80539      0.00000         0.229583      0.000000     -0.000000
      4.74262      1.16108      0.00000         0.229583      0.000000     -0.000000
      4.74262      5.80539      0.00000         0.229583      0.000000     -0.000000
      2.03134      3.48324      3.30080        -0.229583      0.000000     -0.000000
      2.03134      8.12755      3.30080        -0.229583      0.000000     -0.000000
      6.54732      3.48324      3.30080        -0.229583      0.000000     -0.000000
      6.54732      8.12755      3.30080        -0.229583      0.000000     -0.000000
      4.28933      3.48324      0.00000        -0.229583      0.000000     -0.000000
      4.28933      8.12755      0.00000        -0.229583      0.000000     -0.000000
      8.80530      3.48324      0.00000        -0.229583      0.000000     -0.000000
      8.80530      8.12755      0.00000        -0.229583      0.000000     -0.000000
      2.48464      1.16108      3.30080         0.229583      0.000000     -0.000000
      2.48464      5.80539      3.30080         0.229583      0.000000     -0.000000
      7.00061      1.16108      3.30080         0.229583      0.000000     -0.000000
      7.00061      5.80539      3.30080         0.229583      0.000000     -0.000000
 -----------------------------------------------------------------------------------
    total drift:                                0.004555     -0.002132     -0.000730


--------------------------------------------------------------------------------------------------------



  FREE ENERGIE OF THE ION-ELECTRON SYSTEM (eV)
  ---------------------------------------------------
  free  energy   TOTEN  =      -565.49859441 eV

  energy  without entropy=     -565.49910489  energy(sigma->0) =     -565.49876457



--------------------------------------------------------------------------------------------------------


    POTLOK:  cpu time      0.3738: real time      0.3769


--------------------------------------------------------------------------------------------------------


 writing wavefunctions
     LOOP+:  cpu time    744.9444: real time    790.6200
    4ORBIT:  cpu time      0.0000: real time      0.0000

 total amount of memory used by VASP MPI-rank0   416196. kBytes
=======================================================================

   base      :      30000. kBytes
   nonlr-proj:       9097. kBytes
   fftplans  :      20716. kBytes
   grid      :      36753. kBytes
   one-center:        245. kBytes
   wavefun   :     319385. kBytes

  
  
 General timing and accounting informations for this job:
 ========================================================
  
                  Total CPU time used (sec):      752.839
                            User time (sec):      750.370
                          System time (sec):        2.469
                         Elapsed time (sec):      798.806
  
                   Maximum memory used (kb):      601820.
                   Average memory used (kb):          N/A
  
                          Minor page faults:       263642
                          Major page faults:            4
                 Voluntary context switches:          725
