 vasp.6.3.0 20Jan22 (build Jul  1 2024 12:21:46) complex                         
 executed on             LinuxGNU date 2024.10.21  12:38:29
 running    1 mpi-ranks, with    1 threads/rank
 distrk:  each k-point on    1 cores,    1 groups
 distr:  one band on NCORE=   1 cores,    1 groups


--------------------------------------------------------------------------------------------------------


 INCAR:
   SYSTEM = Alumina_orthorombic_cell_under_strain
   ISTART = 0
   ICHARG = 2
   ENCUT = 400
   ALGO = Normal
   PREC = Normal
   ISPIN = 1
   LWAVE = T             (Write WAVECAR)
   LCHARG = T             (Write CHGCAR)
   NPAR = 1
   EDIFF = 1E-6
   NSW = 0
   NELM = 100
   POTIM = 0.5
   IBRION = -1
   ISMEAR = 1
   SIGMA = 0.026
   EDIFFG = -0.001
   ISIF = 2
   LREAL = Auto

 POTCAR:    PAW_PBE Al 04Jan2001                  
 POTCAR:    PAW_PBE O 08Apr2002                   
 POTCAR:    PAW_PBE Al 04Jan2001                  
   SHA256 =  17880443556af62b473fe41b62a467bd001ad55d2cabe504a3f22e34d4e9db96 Al/POTCAR             
   COPYR  = (c) Copyright 04Jan2001 Georg Kresse                                                    
   COPYR  = This file is part of the software VASP. Any use, copying, and all other rights are regul
   COPYR  = If you do not have a valid VASP license, you may not use, copy or distribute this file. 
   VRHFIN =Al: s2p1                                                                                 
   LEXCH  = PE                                                                                      
   EATOM  =    53.5387 eV,    3.9350 Ry                                                             
                                                                                                    
   TITEL  = PAW_PBE Al 04Jan2001                                                                    
   LULTRA =        F    use ultrasoft PP ?                                                          
   IUNSCR =        1    unscreen: 0-lin 1-nonlin 2-no                                               
   RPACOR =    1.500    partial core radius                                                         
   POMASS =   26.981; ZVAL   =    3.000    mass and valenz                                          
   RCORE  =    1.900    outmost cutoff radius                                                       
   RWIGS  =    2.650; RWIGS  =    1.402    wigner-seitz radius (au A)                               
   ENMAX  =  240.300; ENMIN  =  180.225 eV                                                          
   ICORE  =        2    local potential                                                             
   LCOR   =        T    correct aug charges                                                         
   LPAW   =        T    paw PP                                                                      
   EAUG   =  291.052                                                                                
   DEXC   =    0.000                                                                                
   RMAX   =    1.939    core radius for proj-oper                                                   
   RAUG   =    1.300    factor for augmentation sphere                                              
   RDEP   =    1.966    radius for radial grids                                                     
   RDEPT  =    1.856    core radius for aug-charge                                                  
                                                                                                    
   Atomic configuration                                                                             
    6 entries                                                                                       
     n  l   j            E        occ.                                                              
     1  0  0.50     -1511.1048   2.0000                                                             
     2  0  0.50      -108.1629   2.0000                                                             
     2  1  1.50       -69.6402   6.0000                                                             
     3  0  0.50        -7.7528   2.0000                                                             
     3  1  1.50        -2.7121   1.0000                                                             
     3  2  2.50        -2.7212   0.0000                                                             
   Description                                                                                      
     l       E           TYP  RCUT    TYP  RCUT                                                     
     0     -7.7528455     23  1.900                                                                 
     0     -3.3096929     23  1.900                                                                 
     1     -2.7120682     23  1.900                                                                 
     1     13.6058260     23  1.900                                                                 
     2     -2.7211652      7  1.900                                                                 
  local pseudopotential read in
  partial core-charges read in
  partial kinetic energy density read in
  atomic valenz-charges read in
  non local Contribution for L=           0  read in
    real space projection operators read in
  non local Contribution for L=           0  read in
    real space projection operators read in
  non local Contribution for L=           1  read in
    real space projection operators read in
  non local Contribution for L=           1  read in
    real space projection operators read in
    PAW grid and wavefunctions read in

   number of l-projection  operators is LMAX  =           4
   number of lm-projection operators is LMMAX =           8

 POTCAR:    PAW_PBE O 08Apr2002                   
   SHA256 =  818f92134a0a090dccd8ba1447fa70422a3b330e708bb4f08108d8ae51209ddf O/POTCAR              
   COPYR  = (c) Copyright 08Apr2002 Georg Kresse                                                    
   COPYR  = This file is part of the software VASP. Any use, copying, and all other rights are regul
   COPYR  = If you do not have a valid VASP license, you may not use, copy or distribute this file. 
   VRHFIN =O: s2p4                                                                                  
   LEXCH  = PE                                                                                      
   EATOM  =   432.3788 eV,   31.7789 Ry                                                             
                                                                                                    
   TITEL  = PAW_PBE O 08Apr2002                                                                     
   LULTRA =        F    use ultrasoft PP ?                                                          
   IUNSCR =        1    unscreen: 0-lin 1-nonlin 2-no                                               
   RPACOR =    1.200    partial core radius                                                         
   POMASS =   16.000; ZVAL   =    6.000    mass and valenz                                          
   RCORE  =    1.520    outmost cutoff radius                                                       
   RWIGS  =    1.550; RWIGS  =    0.820    wigner-seitz radius (au A)                               
   ENMAX  =  400.000; ENMIN  =  300.000 eV                                                          
   ICORE  =        2    local potential                                                             
   LCOR   =        T    correct aug charges                                                         
   LPAW   =        T    paw PP                                                                      
   EAUG   =  605.392                                                                                
   DEXC   =    0.000                                                                                
   RMAX   =    1.553    core radius for proj-oper                                                   
   RAUG   =    1.300    factor for augmentation sphere                                              
   RDEP   =    1.550    radius for radial grids                                                     
   RDEPT  =    1.329    core radius for aug-charge                                                  
                                                                                                    
   Atomic configuration                                                                             
    4 entries                                                                                       
     n  l   j            E        occ.                                                              
     1  0  0.50      -514.6923   2.0000                                                             
     2  0  0.50       -23.9615   2.0000                                                             
     2  1  0.50        -9.0305   4.0000                                                             
     3  2  1.50        -9.5241   0.0000                                                             
   Description                                                                                      
     l       E           TYP  RCUT    TYP  RCUT                                                     
     0    -23.9615318     23  1.200                                                                 
     0     -9.5240782     23  1.200                                                                 
     1     -9.0304911     23  1.520                                                                 
     1      8.1634956     23  1.520                                                                 
     2     -9.5240782      7  1.500                                                                 
  local pseudopotential read in
  partial core-charges read in
  partial kinetic energy density read in
  kinetic energy density of atom read in
  atomic valenz-charges read in
  non local Contribution for L=           0  read in
    real space projection operators read in
  non local Contribution for L=           0  read in
    real space projection operators read in
  non local Contribution for L=           1  read in
    real space projection operators read in
  non local Contribution for L=           1  read in
    real space projection operators read in
    PAW grid and wavefunctions read in

   number of l-projection  operators is LMAX  =           4
   number of lm-projection operators is LMMAX =           8

 Optimization of the real space projectors (new method)

 maximal supplied QI-value         = 19.84
 optimisation between [QCUT,QGAM] = [ 10.12, 20.44] = [ 28.68,116.96] Ry 
 Optimized for a Real-space Cutoff    1.23 Angstroem

   l    n(q)    QCUT    max X(q) W(low)/X(q) W(high)/X(q)  e(spline) 
   0      7    10.119   176.870    0.49E-04    0.18E-03    0.39E-07
   0      7    10.119   105.762    0.46E-04    0.18E-03    0.38E-07
   1      7    10.119    55.370    0.30E-03    0.37E-03    0.12E-06
   1      7    10.119    20.208    0.27E-03    0.35E-03    0.11E-06
 Optimization of the real space projectors (new method)

 maximal supplied QI-value         = 24.76
 optimisation between [QCUT,QGAM] = [ 10.15, 20.30] = [ 28.85,115.39] Ry 
 Optimized for a Real-space Cutoff    1.38 Angstroem

   l    n(q)    QCUT    max X(q) W(low)/X(q) W(high)/X(q)  e(spline) 
   0      8    10.150    20.381    0.22E-03    0.32E-03    0.29E-06
   0      8    10.150    15.268    0.23E-03    0.35E-03    0.30E-06
   1      8    10.150     5.964    0.46E-03    0.53E-03    0.21E-06
   1      8    10.150     5.382    0.38E-03    0.45E-03    0.19E-06
  PAW_PBE Al 04Jan2001                  :
 energy of atom  1       EATOM=  -53.5387
 kinetic energy error for atom=    0.0005 (will be added to EATOM!!)
  PAW_PBE O 08Apr2002                   :
 energy of atom  2       EATOM= -432.3788
 kinetic energy error for atom=    0.1156 (will be added to EATOM!!)


 POSCAR:    Al  O
  positions in direct lattice
  No initial velocities read in
 exchange correlation table for  LEXCH =        8
   RHO(1)=    0.500       N(1)  =     2000
   RHO(2)=  100.500       N(2)  =     4000



--------------------------------------------------------------------------------------------------------


 ion  position               nearest neighbor table
   1  0.126  0.016  0.390-  70 1.76  52 1.78  46 1.81  77 1.85  37 1.87  33 1.91   5 2.52  18 2.71
                            20 2.75  31 2.95  29 2.95  10 3.00   9 3.00   6 3.02  22 3.26  21 3.26
   2  0.126  0.516  0.390-  69 1.76  51 1.78  45 1.81  78 1.85  38 1.87  34 1.91   6 2.52  17 2.71
                            19 2.75  32 2.95  30 2.95   9 3.00  10 3.00   5 3.02  21 3.26  22 3.26
   3  0.626  0.016  0.390-  72 1.76  50 1.78  48 1.81  79 1.85  39 1.87  35 1.91   7 2.52  20 2.71
                            18 2.75  29 2.95  31 2.95  12 3.00  11 3.00   8 3.02  24 3.26  23 3.26
   4  0.626  0.516  0.390-  71 1.76  49 1.78  47 1.81  80 1.85  40 1.87  36 1.91   8 2.52  19 2.71
                            17 2.75  30 2.95  32 2.95  11 3.00  12 3.00   7 3.02  23 3.26  24 3.26
   5  0.126  0.234  0.610-  69 1.76  55 1.78  41 1.81  77 1.85  33 1.87  37 1.91   1 2.52  21 2.71
                            23 2.75  27 2.95  25 2.95  13 3.00  14 3.00   2 3.02  17 3.26  18 3.26
   6  0.126  0.734  0.610-  70 1.76  56 1.78  42 1.81  78 1.85  34 1.87  38 1.91   2 2.52  22 2.71
                            24 2.75  28 2.95  26 2.95  14 3.00  13 3.00   1 3.02  18 3.26  17 3.26
   7  0.626  0.234  0.610-  71 1.76  53 1.78  43 1.81  79 1.85  35 1.87  39 1.91   3 2.52  23 2.71
                            21 2.75  25 2.95  27 2.95  15 3.00  16 3.00   4 3.02  19 3.26  20 3.26
   8  0.626  0.734  0.610-  72 1.76  54 1.78  44 1.81  80 1.85  36 1.87  40 1.91   4 2.52  24 2.71
                            22 2.75  26 2.95  28 2.95  16 3.00  15 3.00   3 3.02  20 3.26  19 3.26
   9  0.124  0.266  0.110-  65 1.76  57 1.78  37 1.81  75 1.85  45 1.87  41 1.91  13 2.52  27 2.71
                            25 2.75  21 2.95  23 2.95   2 3.00   1 3.00  14 3.02  32 3.26  31 3.26
  10  0.124  0.766  0.110-  66 1.76  58 1.78  38 1.81  76 1.85  46 1.87  42 1.91  14 2.52  28 2.71
                            26 2.75  22 2.95  24 2.95   1 3.00   2 3.00  13 3.02  31 3.26  32 3.26
  11  0.624  0.266  0.110-  67 1.76  59 1.78  39 1.81  73 1.85  47 1.87  43 1.91  15 2.52  25 2.71
                            27 2.75  23 2.95  21 2.95   4 3.00   3 3.00  16 3.02  30 3.26  29 3.26
  12  0.624  0.766  0.110-  68 1.76  60 1.78  40 1.81  74 1.85  48 1.87  44 1.91  16 2.52  26 2.71
                            28 2.75  24 2.95  22 2.95   3 3.00   4 3.00  15 3.02  29 3.26  30 3.26
  13  0.124  0.484  0.890-  66 1.76  62 1.78  34 1.81  75 1.85  41 1.87  45 1.91   9 2.52  32 2.71
                            30 2.75  17 2.95  19 2.95   5 3.00   6 3.00  10 3.02  27 3.26  28 3.26
  14  0.124  0.984  0.890-  65 1.76  61 1.78  33 1.81  76 1.85  42 1.87  46 1.91  10 2.52  31 2.71
                            29 2.75  18 2.95  20 2.95   6 3.00   5 3.00   9 3.02  28 3.26  27 3.26
  15  0.624  0.484  0.890-  68 1.76  64 1.78  36 1.81  73 1.85  43 1.87  47 1.91  11 2.52  30 2.71
                            32 2.75  19 2.95  17 2.95   7 3.00   8 3.00  12 3.02  25 3.26  26 3.26
  16  0.624  0.984  0.890-  67 1.76  63 1.78  35 1.81  74 1.85  44 1.87  48 1.91  12 2.52  29 2.71
                            31 2.75  20 2.95  18 2.95   8 3.00   7 3.00  11 3.02  26 3.26  25 3.26
  17  0.374  0.484  0.610-  78 1.76  36 1.78  62 1.81  69 1.85  53 1.87  49 1.91  21 2.52   2 2.71
                             4 2.75  13 2.95  15 2.95  25 3.00  26 3.00  22 3.02   5 3.26   6 3.26
  18  0.374  0.984  0.610-  77 1.76  35 1.78  61 1.81  70 1.85  54 1.87  50 1.91  22 2.52   1 2.71
                             3 2.75  14 2.95  16 2.95  26 3.00  25 3.00  21 3.02   6 3.26   5 3.26
  19  0.874  0.484  0.610-  80 1.76  34 1.78  64 1.81  71 1.85  55 1.87  51 1.91  23 2.52   4 2.71
                             2 2.75  15 2.95  13 2.95  27 3.00  28 3.00  24 3.02   7 3.26   8 3.26
  20  0.874  0.984  0.610-  79 1.76  33 1.78  63 1.81  72 1.85  56 1.87  52 1.91  24 2.52   3 2.71
                             1 2.75  16 2.95  14 2.95  28 3.00  27 3.00  23 3.02   8 3.26   7 3.26
  21  0.374  0.266  0.390-  77 1.76  39 1.78  57 1.81  69 1.85  49 1.87  53 1.91  17 2.52   5 2.71
                             7 2.75   9 2.95  11 2.95  30 3.00  29 3.00  18 3.02   2 3.26   1 3.26
  22  0.374  0.766  0.390-  78 1.76  40 1.78  58 1.81  70 1.85  50 1.87  54 1.91  18 2.52   6 2.71
                             8 2.75  10 2.95  12 2.95  29 3.00  30 3.00  17 3.02   1 3.26   2 3.26
  23  0.874  0.266  0.390-  79 1.76  37 1.78  59 1.81  71 1.85  51 1.87  55 1.91  19 2.52   7 2.71
                             5 2.75  11 2.95   9 2.95  32 3.00  31 3.00  20 3.02   4 3.26   3 3.26
  24  0.874  0.766  0.390-  80 1.76  38 1.78  60 1.81  72 1.85  52 1.87  56 1.91  20 2.52   8 2.71
                             6 2.75  12 2.95  10 2.95  31 3.00  32 3.00  19 3.02   3 3.26   4 3.26
  25  0.376  0.234  0.890-  73 1.76  41 1.78  53 1.81  67 1.85  61 1.87  57 1.91  29 2.52  11 2.71
                             9 2.75   7 2.95   5 2.95  17 3.00  18 3.00  30 3.02  15 3.26  16 3.26
  26  0.376  0.734  0.890-  74 1.76  42 1.78  54 1.81  68 1.85  62 1.87  58 1.91  30 2.52  12 2.71
                            10 2.75   8 2.95   6 2.95  18 3.00  17 3.00  29 3.02  16 3.26  15 3.26
  27  0.876  0.234  0.890-  75 1.76  43 1.78  55 1.81  65 1.85  63 1.87  59 1.91  31 2.52   9 2.71
                            11 2.75   5 2.95   7 2.95  19 3.00  20 3.00  32 3.02  13 3.26  14 3.26
  28  0.876  0.734  0.890-  76 1.76  44 1.78  56 1.81  66 1.85  64 1.87  60 1.91  32 2.52  10 2.71
                            12 2.75   6 2.95   8 2.95  20 3.00  19 3.00  31 3.02  14 3.26  13 3.26
  29  0.376  0.016  0.110-  74 1.76  46 1.78  50 1.81  67 1.85  57 1.87  61 1.91  25 2.52  16 2.71
                            14 2.75   3 2.95   1 2.95  22 3.00  21 3.00  26 3.02  12 3.26  11 3.26
  30  0.376  0.516  0.110-  73 1.76  45 1.78  49 1.81  68 1.85  58 1.87  62 1.91  26 2.52  15 2.71
                            13 2.75   4 2.95   2 2.95  22 3.00  21 3.00  25 3.02  11 3.26  12 3.26
  31  0.876  0.016  0.110-  76 1.76  48 1.78  52 1.81  65 1.85  59 1.87  63 1.91  27 2.52  14 2.71
                            16 2.75   1 2.95   3 2.95  24 3.00  23 3.00  28 3.02  10 3.26   9 3.26
  32  0.876  0.516  0.110-  75 1.76  47 1.78  51 1.81  66 1.85  60 1.87  64 1.91  28 2.52  13 2.71
                            15 2.75   2 2.95   4 2.95  24 3.00  23 3.00  27 3.02   9 3.26  10 3.26
  33  0.054  0.051  0.654-  20 1.78  14 1.81   5 1.87   1 1.91
  34  0.054  0.551  0.654-  19 1.78  13 1.81   6 1.87   2 1.91
  35  0.554  0.051  0.654-  18 1.78  16 1.81   7 1.87   3 1.91
  36  0.554  0.551  0.654-  17 1.78  15 1.81   8 1.87   4 1.91
  37  0.054  0.199  0.346-  23 1.78   9 1.81   1 1.87   5 1.91
  38  0.054  0.699  0.346-  24 1.78  10 1.81   2 1.87   6 1.91
  39  0.554  0.199  0.346-  21 1.78  11 1.81   3 1.87   7 1.91
  40  0.554  0.699  0.346-  22 1.78  12 1.81   4 1.87   8 1.91
  41  0.196  0.301  0.846-  25 1.78   5 1.81  13 1.87   9 1.91
  42  0.196  0.801  0.846-  26 1.78   6 1.81  14 1.87  10 1.91
  43  0.696  0.301  0.846-  27 1.78   7 1.81  15 1.87  11 1.91
  44  0.696  0.801  0.846-  28 1.78   8 1.81  16 1.87  12 1.91
  45  0.196  0.449  0.154-  30 1.78   2 1.81   9 1.87  13 1.91
  46  0.196  0.949  0.154-  29 1.78   1 1.81  10 1.87  14 1.91
  47  0.696  0.449  0.154-  32 1.78   4 1.81  11 1.87  15 1.91
  48  0.696  0.949  0.154-  31 1.78   3 1.81  12 1.87  16 1.91
  49  0.446  0.449  0.346-   4 1.78  30 1.81  21 1.87  17 1.91
  50  0.446  0.949  0.346-   3 1.78  29 1.81  22 1.87  18 1.91
  51  0.946  0.449  0.346-   2 1.78  32 1.81  23 1.87  19 1.91
  52  0.946  0.949  0.346-   1 1.78  31 1.81  24 1.87  20 1.91
  53  0.446  0.301  0.654-   7 1.78  25 1.81  17 1.87  21 1.91
  54  0.446  0.801  0.654-   8 1.78  26 1.81  18 1.87  22 1.91
  55  0.946  0.301  0.654-   5 1.78  27 1.81  19 1.87  23 1.91
  56  0.946  0.801  0.654-   6 1.78  28 1.81  20 1.87  24 1.91
  57  0.304  0.199  0.154-   9 1.78  21 1.81  29 1.87  25 1.91
  58  0.304  0.699  0.154-  10 1.78  22 1.81  30 1.87  26 1.91
  59  0.804  0.199  0.154-  11 1.78  23 1.81  31 1.87  27 1.91
  60  0.804  0.699  0.154-  12 1.78  24 1.81  32 1.87  28 1.91
  61  0.304  0.051  0.846-  14 1.78  18 1.81  25 1.87  29 1.91
  62  0.304  0.551  0.846-  13 1.78  17 1.81  26 1.87  30 1.91
  63  0.804  0.051  0.846-  16 1.78  20 1.81  27 1.87  31 1.91
  64  0.804  0.551  0.846-  15 1.78  19 1.81  28 1.87  32 1.91
  65  0.025  0.125  0.000-  14 1.76   9 1.76  27 1.85  31 1.85
  66  0.025  0.625  0.000-  13 1.76  10 1.76  28 1.85  32 1.85
  67  0.525  0.125  0.000-  16 1.76  11 1.76  25 1.85  29 1.85
  68  0.525  0.625  0.000-  15 1.76  12 1.76  26 1.85  30 1.85
  69  0.225  0.375  0.500-   5 1.76   2 1.76  17 1.85  21 1.85
  70  0.225  0.875  0.500-   6 1.76   1 1.76  18 1.85  22 1.85
  71  0.725  0.375  0.500-   7 1.76   4 1.76  19 1.85  23 1.85
  72  0.725  0.875  0.500-   8 1.76   3 1.76  20 1.85  24 1.85
  73  0.475  0.375  0.000-  25 1.76  30 1.76  15 1.85  11 1.85
  74  0.475  0.875  0.000-  29 1.76  26 1.76  16 1.85  12 1.85
  75  0.975  0.375  0.000-  27 1.76  32 1.76  13 1.85   9 1.85
  76  0.975  0.875  0.000-  31 1.76  28 1.76  14 1.85  10 1.85
  77  0.275  0.125  0.500-  18 1.76  21 1.76   5 1.85   1 1.85
  78  0.275  0.625  0.500-  17 1.76  22 1.76   6 1.85   2 1.85
  79  0.775  0.125  0.500-  20 1.76  23 1.76   7 1.85   3 1.85
  80  0.775  0.625  0.500-  19 1.76  24 1.76   8 1.85   4 1.85

  LATTYP: Found a simple orthorhombic cell.
 ALAT       =     6.6718304033
 B/A-ratio  =     1.3681458986
 C/A-ratio  =     1.4070268484
  
  Lattice vectors:
  
 A1 = (   0.0000000000,   0.0000000000,   6.6718304033)
 A2 = (   9.1280374022,   0.0000000000,   0.0000000000)
 A3 = (   0.0000000000,   9.3874445055,   0.0000000000)


Analysis of symmetry for initial positions (statically):
=====================================================================
 Subroutine PRICEL returns following result:
 
  LATTYP: Found a simple orthorhombic cell.
 ALAT       =     4.5640187013
 B/A-ratio  =     1.0284187391
 C/A-ratio  =     1.4618323981
  
  Lattice vectors:
  
 A1 = (   4.5640187013,   0.0000000000,   0.0000000000)
 A2 = (   0.0000000000,   4.6937223580,   0.0000000000)
 A3 = (   0.0000000000,   0.0000000000,   6.6718304033)
 
   4 primitive cells build up your supercell.
 

 Routine SETGRP: Setting up the symmetry group for a 
 simple orthorhombic supercell.


 Subroutine GETGRP returns: Found  8 space group operations
 (whereof  2 operations were pure point group operations)
 out of a pool of  8 trial point group operations.


The static configuration has the point symmetry S_2 .
 The point group associated with its full space group is D_2h.


Analysis of symmetry for dynamics (positions and initial velocities):
=====================================================================
 Subroutine PRICEL returns following result:
 
  LATTYP: Found a simple orthorhombic cell.
 ALAT       =     4.5640187013
 B/A-ratio  =     1.0284187391
 C/A-ratio  =     1.4618323981
  
  Lattice vectors:
  
 A1 = (   4.5640187013,   0.0000000000,   0.0000000000)
 A2 = (   0.0000000000,   4.6937223580,   0.0000000000)
 A3 = (   0.0000000000,   0.0000000000,   6.6718304033)
 
   4 primitive cells build up your supercell.
 

 Routine SETGRP: Setting up the symmetry group for a 
 simple orthorhombic supercell.


 Subroutine GETGRP returns: Found  8 space group operations
 (whereof  2 operations were pure point group operations)
 out of a pool of  8 trial point group operations.


The dynamic configuration has the point symmetry S_2 .
 The point group associated with its full space group is D_2h.


Analysis of constrained symmetry for selective dynamics:
=====================================================================
 Subroutine PRICEL returns following result:
 
  LATTYP: Found a simple orthorhombic cell.
 ALAT       =     4.5640187013
 B/A-ratio  =     1.0284187391
 C/A-ratio  =     1.4618323981
  
  Lattice vectors:
  
 A1 = (   4.5640187013,   0.0000000000,   0.0000000000)
 A2 = (   0.0000000000,   4.6937223580,   0.0000000000)
 A3 = (   0.0000000000,   0.0000000000,   6.6718304033)
 
   4 primitive cells build up your supercell.
 

 Routine SETGRP: Setting up the symmetry group for a 
 simple orthorhombic supercell.


 Subroutine GETGRP returns: Found  8 space group operations
 (whereof  2 operations were pure point group operations)
 out of a pool of  8 trial point group operations.


The constrained configuration has the point symmetry S_2 .
 The point group associated with its full space group is D_2h.


 Subroutine INISYM returns: Found  8 space group operations
 (whereof  2 operations are pure point group operations),
 and found     4 'primitive' translations


----------------------------------------------------------------------------------------

                                     Primitive cell                                     

  volume of cell :     142.9255

  direct lattice vectors                    reciprocal lattice vectors
     4.564018701  0.000000000  0.000000000     0.219105150  0.000000000  0.000000000
     0.000000000  4.693722358  0.000000000     0.000000000  0.213050522  0.000000000
     0.000000000  0.000000000  6.671830403     0.000000000  0.000000000  0.149883906

  length of vectors
     4.564018701  4.693722358  6.671830403     0.219105150  0.213050522  0.149883906

  position of ions in fractional coordinates (direct lattice)
     0.252301010  0.031394432  0.389988368
     0.252301010  0.468605564  0.610011602
     0.247698990  0.531394421  0.110011610
     0.247698990  0.968605501  0.889988398
     0.747698961  0.968605501  0.610011602
     0.747698961  0.531394421  0.389988368
     0.752301039  0.468605564  0.889988398
     0.752301039  0.031394432  0.110011610
     0.107072531  0.102390997  0.654148561
     0.107072531  0.397608992  0.345851469
     0.392927454  0.602391023  0.845851439
     0.392927454  0.897608899  0.154148517
     0.892927514  0.897608899  0.345851469
     0.892927514  0.602391023  0.654148561
     0.607072486  0.397608992  0.154148517
     0.607072486  0.102390997  0.845851439
     0.050188047  0.249999994  0.000000000
     0.449811960  0.749999961  0.500000000
     0.949811900  0.749999961  0.000000000
     0.550188099  0.249999994  0.500000000

  ion indices of the primitive-cell ions
   primitive index   ion index
                 1           1
                 2           5
                 3          10
                 4          14
                 5          18
                 6          22
                 7          27
                 8          31
                 9          33
                10          37
                11          42
                12          46
                13          52
                14          56
                15          57
                16          61
                17          65
                18          70
                19          76
                20          77

----------------------------------------------------------------------------------------



 KPOINTS: k-points                                

Automatic generation of k-mesh.
 Grid dimensions read from file:
 generate k-points for:    4    4    4

 Generating k-lattice:

  Cartesian coordinates                     Fractional coordinates (reciprocal lattice)
     0.027388144  0.000000000  0.000000000     0.250000000  0.000000000  0.000000000
     0.000000000  0.026631316  0.000000000     0.000000000  0.250000000  0.000000000
     0.000000000  0.000000000  0.037470976     0.000000000  0.000000000  0.250000000

  Length of vectors
     0.027388144  0.026631316  0.037470976

  Shift w.r.t. Gamma in fractional coordinates (k-lattice)
     0.500000000  0.500000000  0.500000000

 
 Subroutine IBZKPT returns following result:
 ===========================================
 
 Found      8 irreducible k-points:
 
 Following reciprocal coordinates:
            Coordinates               Weight
  0.125000  0.125000  0.125000      8.000000
  0.375000  0.125000  0.125000      8.000000
  0.125000  0.375000  0.125000      8.000000
  0.375000  0.375000  0.125000      8.000000
  0.125000  0.125000  0.375000      8.000000
  0.375000  0.125000  0.375000      8.000000
  0.125000  0.375000  0.375000      8.000000
  0.375000  0.375000  0.375000      8.000000
 
 Following cartesian coordinates:
            Coordinates               Weight
  0.013694  0.013316  0.018735      8.000000
  0.041082  0.013316  0.018735      8.000000
  0.013694  0.039947  0.018735      8.000000
  0.041082  0.039947  0.018735      8.000000
  0.013694  0.013316  0.056206      8.000000
  0.041082  0.013316  0.056206      8.000000
  0.013694  0.039947  0.056206      8.000000
  0.041082  0.039947  0.056206      8.000000
 


--------------------------------------------------------------------------------------------------------




 Dimension of arrays:
   k-points           NKPTS =      8   k-points in BZ     NKDIM =      8   number of bands    NBANDS=    233
   number of dos      NEDOS =    301   number of ions     NIONS =     80
   non local maximal  LDIM  =      4   non local SUM 2l+1 LMDIM =      8
   total plane-waves  NPLWV =  82944
   max r-space proj   IRMAX =   1648   max aug-charges    IRDMAX=   5845
   dimension x,y,z NGX =    48 NGY =   48 NGZ =   36
   dimension x,y,z NGXF=    96 NGYF=   96 NGZF=   72
   support grid    NGXF=    96 NGYF=   96 NGZF=   72
   ions per type =              32  48
   NGX,Y,Z   is equivalent  to a cutoff of   8.74,  8.50,  8.97 a.u.
   NGXF,Y,Z  is equivalent  to a cutoff of  17.48, 17.00, 17.94 a.u.

 SYSTEM =  Alumina_orthorombic_cell_under_strain   
 POSCAR =     Al  O                                

 Startparameter for this run:
   NWRITE =      2    write-flag & timer
   PREC   = normal    normal or accurate (medium, high low for compatibility)
   ISTART =      0    job   : 0-new  1-cont  2-samecut
   ICHARG =      2    charge: 1-file 2-atom 10-const
   ISPIN  =      1    spin polarized calculation?
   LNONCOLLINEAR =      F non collinear calculations
   LSORBIT =      F    spin-orbit coupling
   INIWAV =      1    electr: 0-lowe 1-rand  2-diag
   LASPH  =      F    aspherical Exc in radial PAW
 Electronic Relaxation 1
   ENCUT  =  400.0 eV  29.40 Ry    5.42 a.u.  14.89 15.31 10.88*2*pi/ulx,y,z
   ENINI  =  400.0     initial cutoff
   ENAUG  =  605.4 eV  augmentation charge cutoff
   NELM   =    100;   NELMIN=  2; NELMDL= -5     # of ELM steps 
   EDIFF  = 0.1E-05   stopping-criterion for ELM
   LREAL  =      T    real-space projection
   NLSPLINE    = F    spline interpolate recip. space projectors
   LCOMPAT=      F    compatible to vasp.4.4
   GGA_COMPAT  = T    GGA compatible to vasp.4.4-vasp.4.6
   LMAXPAW     = -100 max onsite density
   LMAXMIX     =    2 max onsite mixed and CHGCAR
   VOSKOWN=      0    Vosko Wilk Nusair interpolation
   ROPT   =   -0.00050  -0.00050
 Ionic relaxation
   EDIFFG = -.1E-02   stopping-criterion for IOM
   NSW    =      0    number of steps for IOM
   NBLOCK =      1;   KBLOCK =      1    inner block; outer block 
   IBRION =     -1    ionic relax: 0-MD 1-quasi-New 2-CG
   NFREE  =      0    steps in history (QN), initial steepest desc. (CG)
   ISIF   =      2    stress and relaxation
   IWAVPR =     10    prediction:  0-non 1-charg 2-wave 3-comb
   ISYM   =      2    0-nonsym 1-usesym 2-fastsym
   LCORR  =      T    Harris-Foulkes like correction to forces

   POTIM  = 0.5000    time-step for ionic-motion
   TEIN   =    0.0    initial temperature
   TEBEG  =    0.0;   TEEND  =   0.0 temperature during run
   SMASS  =  -3.00    Nose mass-parameter (am)
   estimated Nose-frequenzy (Omega)   =  0.10E-29 period in steps = 0.13E+47 mass=  -0.190E-26a.u.
   SCALEE = 1.0000    scale energy and forces
   NPACO  =    256;   APACO  = 10.0  distance and # of slots for P.C.
   PSTRESS=    0.0 pullay stress

  Mass of Ions in am
   POMASS =  26.98 16.00
  Ionic Valenz
   ZVAL   =   3.00  6.00
  Atomic Wigner-Seitz radii
   RWIGS  =  -1.00 -1.00
  virtual crystal weights 
   VCA    =   1.00  1.00
   NELECT =     384.0000    total number of electrons
   NUPDOWN=      -1.0000    fix difference up-down

 DOS related values:
   EMIN   =  10.00;   EMAX   =-10.00  energy-range for DOS
   EFERMI =   0.00
   ISMEAR =     1;   SIGMA  =   0.03  broadening in eV -4-tet -1-fermi 0-gaus

 Electronic relaxation 2 (details)
   IALGO  =     38    algorithm
   LDIAG  =      T    sub-space diagonalisation (order eigenvalues)
   LSUBROT=      F    optimize rotation matrix (better conditioning)
   TURBO    =      0    0=normal 1=particle mesh
   IRESTART =      0    0=no restart 2=restart with 2 vectors
   NREBOOT  =      0    no. of reboots
   NMIN     =      0    reboot dimension
   EREF     =   0.00    reference energy to select bands
   IMIX   =      4    mixing-type and parameters
     AMIX     =   0.40;   BMIX     =  1.00
     AMIX_MAG =   1.60;   BMIX_MAG =  1.00
     AMIN     =   0.10
     WC   =   100.;   INIMIX=   1;  MIXPRE=   1;  MAXMIX= -45

 Intra band minimization:
   WEIMIN = 0.0000     energy-eigenvalue tresh-hold
   EBREAK =  0.11E-08  absolut break condition
   DEPER  =   0.30     relativ break condition  

   TIME   =   0.40     timestep for ELM

  volume/ion in A,a.u.               =       7.15        48.23
  Fermi-wavevector in a.u.,A,eV,Ry     =   1.433712  2.709323 27.967192  2.055531
  Thomas-Fermi vector in A             =   2.553200

 Write flags
   LWAVE        =      T    write WAVECAR
   LDOWNSAMPLE  =      F    k-point downsampling of WAVECAR
   LCHARG       =      T    write CHGCAR
   LVTOT        =      F    write LOCPOT, total local potential
   LVHAR        =      F    write LOCPOT, Hartree potential only
   LELF         =      F    write electronic localiz. function (ELF)
   LORBIT       =      0    0 simple, 1 ext, 2 COOP (PROOUT), +10 PAW based schemes


 Dipole corrections
   LMONO  =      F    monopole corrections only (constant potential shift)
   LDIPOL =      F    correct potential (dipole corrections)
   IDIPOL =      0    1-x, 2-y, 3-z, 4-all directions 
   EPSILON=  1.0000000 bulk dielectric constant

 Exchange correlation treatment:
   GGA     =    --    GGA type
   LEXCH   =     8    internal setting for exchange type
   LIBXC   =     F    Libxc                    
   VOSKOWN =     0    Vosko Wilk Nusair interpolation
   LHFCALC =     F    Hartree Fock is set to
   LHFONE  =     F    Hartree Fock one center treatment
   AEXX    =    0.0000 exact exchange contribution

 Linear response parameters
   LEPSILON=     F    determine dielectric tensor
   LRPA    =     F    only Hartree local field effects (RPA)
   LNABLA  =     F    use nabla operator in PAW spheres
   LVEL    =     F    velocity operator in full k-point grid
   CSHIFT  =0.1000    complex shift for real part using Kramers Kronig
   OMEGAMAX=  -1.0    maximum frequency
   DEG_THRESHOLD= 0.2000000E-02 threshold for treating states as degnerate
   RTIME   =   -0.100 relaxation time in fs
  (WPLASMAI=    0.000 imaginary part of plasma frequency in eV, 0.658/RTIME)
   DFIELD  = 0.0000000 0.0000000 0.0000000 field for delta impulse in time

  Optional k-point grid parameters
   LKPOINTS_OPT  =     F    use optional k-point grid
   KPOINTS_OPT_MODE=     1    mode for optional k-point grid

 Orbital magnetization related:
   ORBITALMAG=     F  switch on orbital magnetization
   LCHIMAG   =     F  perturbation theory with respect to B field
   DQ        =  0.001000  dq finite difference perturbation B field
   LLRAUG    =     F  two centre corrections for induced B field



--------------------------------------------------------------------------------------------------------


 Static calculation
 charge density and potential will be updated during run
 non-spin polarized calculation
 Variant of blocked Davidson
 Davidson routine will perform the subspace rotation
 perform sub-space diagonalisation
    after iterative eigenvector-optimisation
 modified Broyden-mixing scheme, WC =      100.0
 initial mixing is a Kerker type mixing with AMIX =  0.4000 and BMIX =      1.0000
 Hartree-type preconditioning will be used
 using additional bands           41
 real space projection scheme for non local part
 use partial core corrections
 calculate Harris-corrections to forces   (improved forces if not selfconsistent)
 use gradient corrections 
 use of overlap-Matrix (Vanderbilt PP)
 Methfessel and Paxton  Order N= 1 SIGMA  =   0.03


--------------------------------------------------------------------------------------------------------


  energy-cutoff  :      400.00
  volume of cell :      571.70
      direct lattice vectors                 reciprocal lattice vectors
     9.128037402  0.000000000  0.000000000     0.109552575  0.000000000  0.000000000
     0.000000000  9.387444506  0.000000000     0.000000000  0.106525264  0.000000000
     0.000000000  0.000000000  6.671830403     0.000000000  0.000000000  0.149883906

  length of vectors
     9.128037402  9.387444506  6.671830403     0.109552575  0.106525264  0.149883906



 k-points in units of 2pi/SCALE and weight: k-points                                
   0.01369407  0.01331566  0.01873549       0.125
   0.04108222  0.01331566  0.01873549       0.125
   0.01369407  0.03994697  0.01873549       0.125
   0.04108222  0.03994697  0.01873549       0.125
   0.01369407  0.01331566  0.05620646       0.125
   0.04108222  0.01331566  0.05620646       0.125
   0.01369407  0.03994697  0.05620646       0.125
   0.04108222  0.03994697  0.05620646       0.125

 k-points in reciprocal lattice and weights: k-points                                
   0.12500000  0.12500000  0.12500000       0.125
   0.37500000  0.12500000  0.12500000       0.125
   0.12500000  0.37500000  0.12500000       0.125
   0.37500000  0.37500000  0.12500000       0.125
   0.12500000  0.12500000  0.37500000       0.125
   0.37500000  0.12500000  0.37500000       0.125
   0.12500000  0.37500000  0.37500000       0.125
   0.37500000  0.37500000  0.37500000       0.125

 position of ions in fractional coordinates (direct lattice) 
   0.12615050  0.01569722  0.38998837
   0.12615050  0.51569723  0.38998837
   0.62615052  0.01569722  0.38998837
   0.62615052  0.51569723  0.38998837
   0.12615050  0.23430279  0.61001160
   0.12615050  0.73430277  0.61001160
   0.62615052  0.23430279  0.61001160
   0.62615052  0.73430277  0.61001160
   0.12384950  0.26569723  0.11001161
   0.12384950  0.76569723  0.11001161
   0.62384948  0.26569723  0.11001161
   0.62384948  0.76569723  0.11001161
   0.12384950  0.48430277  0.88998840
   0.12384950  0.98430277  0.88998840
   0.62384948  0.48430277  0.88998840
   0.62384948  0.98430277  0.88998840
   0.37384948  0.48430277  0.61001160
   0.37384948  0.98430277  0.61001160
   0.87384948  0.48430277  0.61001160
   0.87384948  0.98430277  0.61001160
   0.37384948  0.26569723  0.38998837
   0.37384948  0.76569723  0.38998837
   0.87384948  0.26569723  0.38998837
   0.87384948  0.76569723  0.38998837
   0.37615052  0.23430279  0.88998840
   0.37615052  0.73430277  0.88998840
   0.87615052  0.23430279  0.88998840
   0.87615052  0.73430277  0.88998840
   0.37615052  0.01569722  0.11001161
   0.37615052  0.51569723  0.11001161
   0.87615052  0.01569722  0.11001161
   0.87615052  0.51569723  0.11001161
   0.05353627  0.05119550  0.65414856
   0.05353627  0.55119553  0.65414856
   0.55353624  0.05119550  0.65414856
   0.55353624  0.55119553  0.65414856
   0.05353627  0.19880450  0.34585147
   0.05353627  0.69880447  0.34585147
   0.55353624  0.19880450  0.34585147
   0.55353624  0.69880447  0.34585147
   0.19646373  0.30119550  0.84585144
   0.19646373  0.80119553  0.84585144
   0.69646370  0.30119550  0.84585144
   0.69646370  0.80119553  0.84585144
   0.19646373  0.44880450  0.15414852
   0.19646373  0.94880447  0.15414852
   0.69646370  0.44880450  0.15414852
   0.69646370  0.94880447  0.15414852
   0.44646376  0.44880450  0.34585147
   0.44646376  0.94880447  0.34585147
   0.94646376  0.44880450  0.34585147
   0.94646376  0.94880447  0.34585147
   0.44646376  0.30119550  0.65414856
   0.44646376  0.80119553  0.65414856
   0.94646376  0.30119550  0.65414856
   0.94646376  0.80119553  0.65414856
   0.30353624  0.19880450  0.15414852
   0.30353624  0.69880447  0.15414852
   0.80353624  0.19880450  0.15414852
   0.80353624  0.69880447  0.15414852
   0.30353624  0.05119550  0.84585144
   0.30353624  0.55119553  0.84585144
   0.80353624  0.05119550  0.84585144
   0.80353624  0.55119553  0.84585144
   0.02509402  0.12500000  0.00000000
   0.02509402  0.62500000  0.00000000
   0.52509405  0.12500000  0.00000000
   0.52509405  0.62500000  0.00000000
   0.22490598  0.37500000  0.50000000
   0.22490598  0.87500000  0.50000000
   0.72490601  0.37500000  0.50000000
   0.72490601  0.87500000  0.50000000
   0.47490595  0.37500000  0.00000000
   0.47490595  0.87500000  0.00000000
   0.97490595  0.37500000  0.00000000
   0.97490595  0.87500000  0.00000000
   0.27509405  0.12500000  0.50000000
   0.27509405  0.62500000  0.50000000
   0.77509405  0.12500000  0.50000000
   0.77509405  0.62500000  0.50000000

 position of ions in cartesian coordinates  (Angst):
   1.15150653  0.14735675  2.60193625
   1.15150653  4.84107911  2.60193625
   5.71552536  0.14735675  2.60193625
   5.71552536  4.84107911  2.60193625
   1.15150653  2.19950441  4.06989395
   1.15150653  6.89322653  4.06989395
   5.71552536  2.19950441  4.06989395
   5.71552536  6.89322653  4.06989395
   1.13050282  2.49421798  0.73397880
   1.13050282  7.18794023  0.73397880
   5.69452139  2.49421798  0.73397880
   5.69452139  7.18794023  0.73397880
   1.13050282  4.54636540  5.93785165
   1.13050282  9.24008765  5.93785165
   5.69452139  4.54636540  5.93785165
   5.69452139  9.24008765  5.93785165
   3.41251204  4.54636540  4.06989395
   3.41251204  9.24008765  4.06989395
   7.97653074  4.54636540  4.06989395
   7.97653074  9.24008765  4.06989395
   3.41251204  2.49421798  2.60193625
   3.41251204  7.18794023  2.60193625
   7.97653074  2.49421798  2.60193625
   7.97653074  7.18794023  2.60193625
   3.43351601  2.19950441  5.93785165
   3.43351601  6.89322653  5.93785165
   7.99753471  2.19950441  5.93785165
   7.99753471  6.89322653  5.93785165
   3.43351601  0.14735675  0.73397880
   3.43351601  4.84107911  0.73397880
   7.99753471  0.14735675  0.73397880
   7.99753471  4.84107911  0.73397880
   0.48868103  0.48059491  4.36436826
   0.48868103  5.17431744  4.36436826
   5.05269953  0.48059491  4.36436826
   5.05269953  5.17431744  4.36436826
   0.48868103  1.86626622  2.30746234
   0.48868103  6.55998819  2.30746234
   5.05269953  1.86626622  2.30746234
   5.05269953  6.55998819  2.30746234
   1.79332825  2.82745604  5.64337735
   1.79332825  7.52117857  5.64337735
   6.35734668  2.82745604  5.64337735
   6.35734668  7.52117857  5.64337735
   1.79332825  4.21312734  1.02845276
   1.79332825  8.90684932  1.02845276
   6.35734668  4.21312734  1.02845276
   6.35734668  8.90684932  1.02845276
   4.07533787  4.21312734  2.30746234
   4.07533787  8.90684932  2.30746234
   8.63935657  4.21312734  2.30746234
   8.63935657  8.90684932  2.30746234
   4.07533787  2.82745604  4.36436826
   4.07533787  7.52117857  4.36436826
   8.63935657  2.82745604  4.36436826
   8.63935657  7.52117857  4.36436826
   2.77069018  1.86626622  1.02845276
   2.77069018  6.55998819  1.02845276
   7.33470888  1.86626622  1.02845276
   7.33470888  6.55998819  1.02845276
   2.77069018  0.48059491  5.64337735
   2.77069018  5.17431744  5.64337735
   7.33470888  0.48059491  5.64337735
   7.33470888  5.17431744  5.64337735
   0.22905919  1.17343056  0.00000000
   0.22905919  5.86715282  0.00000000
   4.79307813  1.17343056  0.00000000
   4.79307813  5.86715282  0.00000000
   2.05295020  3.52029169  3.33591520
   2.05295020  8.21401394  3.33591520
   6.61696917  3.52029169  3.33591520
   6.61696917  8.21401394  3.33591520
   4.33495928  3.52029169  0.00000000
   4.33495928  8.21401394  0.00000000
   8.89897798  3.52029169  0.00000000
   8.89897798  8.21401394  0.00000000
   2.51106878  1.17343056  3.33591520
   2.51106878  5.86715282  3.33591520
   7.07508748  1.17343056  3.33591520
   7.07508748  5.86715282  3.33591520



--------------------------------------------------------------------------------------------------------


 k-point   1 :   0.1250 0.1250 0.1250  plane waves:   10377
 k-point   2 :   0.3750 0.1250 0.1250  plane waves:   10375
 k-point   3 :   0.1250 0.3750 0.1250  plane waves:   10379
 k-point   4 :   0.3750 0.3750 0.1250  plane waves:   10370
 k-point   5 :   0.1250 0.1250 0.3750  plane waves:   10389
 k-point   6 :   0.3750 0.1250 0.3750  plane waves:   10399
 k-point   7 :   0.1250 0.3750 0.3750  plane waves:   10382
 k-point   8 :   0.3750 0.3750 0.3750  plane waves:   10400

 maximum and minimum number of plane-waves per node :     10400    10370

 maximum number of plane-waves:     10400
 maximum index in each direction: 
   IXMAX=   14   IYMAX=   15   IZMAX=   10
   IXMIN=  -15   IYMIN=  -15   IZMIN=  -11


 serial   3D FFT for wavefunctions
 parallel 3D FFT for charge:
    minimum data exchange during FFTs selected (reduces bandwidth)


 total amount of memory used by VASP MPI-rank0   433845. kBytes
=======================================================================

   base      :      30000. kBytes
   nonlr-proj:       9878. kBytes
   fftplans  :      23216. kBytes
   grid      :      41250. kBytes
   one-center:        245. kBytes
   wavefun   :     329256. kBytes

     INWAV:  cpu time      0.0001: real time      0.0002
 Broyden mixing: mesh for mixing (old mesh)
   NGX = 29   NGY = 31   NGZ = 21
  (NGX  = 96   NGY  = 96   NGZ  = 72)
  gives a total of  18879 points

 initial charge density was supplied:
 charge density of overlapping atoms calculated
 number of electron     384.0000000 magnetization 
 keeping initial charge density in first step


--------------------------------------------------------------------------------------------------------


 Maximum index for non-local projection operator         1548
 Maximum index for augmentation-charges         5469 (set IRDMAX)


--------------------------------------------------------------------------------------------------------


 First call to EWALD:  gamma=   0.214
 Maximum number of real-space cells 3x 2x 3
 Maximum number of reciprocal cells 3x 3x 2

    FEWALD:  cpu time      0.0756: real time      0.0759


--------------------------------------- Iteration      1(   1)  ---------------------------------------


    POTLOK:  cpu time      0.3375: real time      0.3392
    SETDIJ:  cpu time      0.0822: real time      0.0825
     EDDAV:  cpu time     45.9291: real time     46.3835
       DOS:  cpu time      0.0024: real time      0.0026
    --------------------------------------------
      LOOP:  cpu time     46.3512: real time     46.8078

 eigenvalue-minimisations  :  3728
 total energy-change (2. order) : 0.1903369E+04  (-0.1818255E+05)
 number of electron     384.0000000 magnetization 
 augmentation part      384.0000000 magnetization 

 Free energy of the ion-electron system (eV)
  ---------------------------------------------------
  alpha Z        PSCENC =       722.59730984
  Ewald energy   TEWEN  =    -20511.20251311
  -Hartree energ DENC   =     -4518.66330433
  -exchange      EXHF   =         0.00000000
  -V(xc)+E(xc)   XCENC  =       564.34597947
  PAW double counting   =     18752.77991877   -17816.57094691
  entropy T*S    EENTRO =         0.00004938
  eigenvalues    EBANDS =      2248.22844171
  atomic energy  EATOM  =     22461.85434800
  Solvation  Ediel_sol  =         0.00000000
  ---------------------------------------------------
  free energy    TOTEN  =      1903.36928282 eV

  energy without entropy =     1903.36923344  energy(sigma->0) =     1903.36926636


--------------------------------------------------------------------------------------------------------




--------------------------------------- Iteration      1(   2)  ---------------------------------------


     EDDAV:  cpu time     51.9320: real time     52.4465
       DOS:  cpu time      0.0023: real time      0.0025
    --------------------------------------------
      LOOP:  cpu time     51.9343: real time     52.4490

 eigenvalue-minimisations  :  4320
 total energy-change (2. order) :-0.2433977E+04  (-0.2381947E+04)
 number of electron     384.0000000 magnetization 
 augmentation part      384.0000000 magnetization 

 Free energy of the ion-electron system (eV)
  ---------------------------------------------------
  alpha Z        PSCENC =       722.59730984
  Ewald energy   TEWEN  =    -20511.20251311
  -Hartree energ DENC   =     -4518.66330433
  -exchange      EXHF   =         0.00000000
  -V(xc)+E(xc)   XCENC  =       564.34597947
  PAW double counting   =     18752.77991877   -17816.57094691
  entropy T*S    EENTRO =         0.00018843
  eigenvalues    EBANDS =      -185.74855810
  atomic energy  EATOM  =     22461.85434800
  Solvation  Ediel_sol  =         0.00000000
  ---------------------------------------------------
  free energy    TOTEN  =      -530.60757794 eV

  energy without entropy =     -530.60776637  energy(sigma->0) =     -530.60764075


--------------------------------------------------------------------------------------------------------




--------------------------------------- Iteration      1(   3)  ---------------------------------------


     EDDAV:  cpu time     52.4293: real time     52.9372
       DOS:  cpu time      0.0024: real time      0.0026
    --------------------------------------------
      LOOP:  cpu time     52.4317: real time     52.9397

 eigenvalue-minimisations  :  4368
 total energy-change (2. order) :-0.1113801E+03  (-0.1109917E+03)
 number of electron     384.0000000 magnetization 
 augmentation part      384.0000000 magnetization 

 Free energy of the ion-electron system (eV)
  ---------------------------------------------------
  alpha Z        PSCENC =       722.59730984
  Ewald energy   TEWEN  =    -20511.20251311
  -Hartree energ DENC   =     -4518.66330433
  -exchange      EXHF   =         0.00000000
  -V(xc)+E(xc)   XCENC  =       564.34597947
  PAW double counting   =     18752.77991877   -17816.57094691
  entropy T*S    EENTRO =         0.00083346
  eigenvalues    EBANDS =      -297.12931557
  atomic energy  EATOM  =     22461.85434800
  Solvation  Ediel_sol  =         0.00000000
  ---------------------------------------------------
  free energy    TOTEN  =      -641.98769039 eV

  energy without entropy =     -641.98852385  energy(sigma->0) =     -641.98796821


--------------------------------------------------------------------------------------------------------




--------------------------------------- Iteration      1(   4)  ---------------------------------------


     EDDAV:  cpu time     52.2938: real time     52.7947
       DOS:  cpu time      0.0023: real time      0.0026
    --------------------------------------------
      LOOP:  cpu time     52.2962: real time     52.7973

 eigenvalue-minimisations  :  4360
 total energy-change (2. order) :-0.1114198E+01  (-0.1111406E+01)
 number of electron     384.0000000 magnetization 
 augmentation part      384.0000000 magnetization 

 Free energy of the ion-electron system (eV)
  ---------------------------------------------------
  alpha Z        PSCENC =       722.59730984
  Ewald energy   TEWEN  =    -20511.20251311
  -Hartree energ DENC   =     -4518.66330433
  -exchange      EXHF   =         0.00000000
  -V(xc)+E(xc)   XCENC  =       564.34597947
  PAW double counting   =     18752.77991877   -17816.57094691
  entropy T*S    EENTRO =         0.00084271
  eigenvalues    EBANDS =      -298.24352285
  atomic energy  EATOM  =     22461.85434800
  Solvation  Ediel_sol  =         0.00000000
  ---------------------------------------------------
  free energy    TOTEN  =      -643.10188842 eV

  energy without entropy =     -643.10273112  energy(sigma->0) =     -643.10216932


--------------------------------------------------------------------------------------------------------




--------------------------------------- Iteration      1(   5)  ---------------------------------------


     EDDAV:  cpu time     51.8185: real time     52.3213
       DOS:  cpu time      0.0024: real time      0.0026
    CHARGE:  cpu time      1.5478: real time      1.5607
    MIXING:  cpu time      0.0122: real time      0.0123
    --------------------------------------------
      LOOP:  cpu time     53.3810: real time     53.8970

 eigenvalue-minimisations  :  4336
 total energy-change (2. order) :-0.1795168E-01  (-0.1793514E-01)
 number of electron     383.9999429 magnetization 
 augmentation part       38.4484246 magnetization 

 Broyden mixing:
  rms(total) = 0.52993E+01    rms(broyden)= 0.52972E+01
  rms(prec ) = 0.69271E+01
  weight for this iteration     100.00

 Free energy of the ion-electron system (eV)
  ---------------------------------------------------
  alpha Z        PSCENC =       722.59730984
  Ewald energy   TEWEN  =    -20511.20251311
  -Hartree energ DENC   =     -4518.66330433
  -exchange      EXHF   =         0.00000000
  -V(xc)+E(xc)   XCENC  =       564.34597947
  PAW double counting   =     18752.77991877   -17816.57094691
  entropy T*S    EENTRO =         0.00084253
  eigenvalues    EBANDS =      -298.26147435
  atomic energy  EATOM  =     22461.85434800
  Solvation  Ediel_sol  =         0.00000000
  ---------------------------------------------------
  free energy    TOTEN  =      -643.11984010 eV

  energy without entropy =     -643.12068263  energy(sigma->0) =     -643.12012094


--------------------------------------------------------------------------------------------------------




--------------------------------------- Iteration      1(   6)  ---------------------------------------


    POTLOK:  cpu time      0.3400: real time      0.3426
    SETDIJ:  cpu time      0.0841: real time      0.0846
     EDDAV:  cpu time     50.0807: real time     50.5734
       DOS:  cpu time      0.0023: real time      0.0025
    CHARGE:  cpu time      1.5305: real time      1.5430
    MIXING:  cpu time      0.0119: real time      0.0120
    --------------------------------------------
      LOOP:  cpu time     52.0497: real time     52.5581

 eigenvalue-minimisations  :  4168
 total energy-change (2. order) : 0.6940251E+02  (-0.2635596E+02)
 number of electron     383.9999500 magnetization 
 augmentation part       33.1850098 magnetization 

 Broyden mixing:
  rms(total) = 0.18887E+01    rms(broyden)= 0.18865E+01
  rms(prec ) = 0.21195E+01
  weight for this iteration     100.00

 eigenvalues of (default mixing * dielectric matrix)
  average eigenvalue GAMMA=   1.0579
  1.0579

 Free energy of the ion-electron system (eV)
  ---------------------------------------------------
  alpha Z        PSCENC =       722.59730984
  Ewald energy   TEWEN  =    -20511.20251311
  -Hartree energ DENC   =     -5250.03701702
  -exchange      EXHF   =         0.00000000
  -V(xc)+E(xc)   XCENC  =       617.37880332
  PAW double counting   =     25780.20370538   -24860.44484835
  entropy T*S    EENTRO =         0.00057725
  eigenvalues    EBANDS =       465.93230393
  atomic energy  EATOM  =     22461.85434800
  Solvation  Ediel_sol  =         0.00000000
  ---------------------------------------------------
  free energy    TOTEN  =      -573.71733075 eV

  energy without entropy =     -573.71790800  energy(sigma->0) =     -573.71752317


--------------------------------------------------------------------------------------------------------




--------------------------------------- Iteration      1(   7)  ---------------------------------------


    POTLOK:  cpu time      0.3463: real time      0.3491
    SETDIJ:  cpu time      0.0832: real time      0.0836
     EDDAV:  cpu time     52.3042: real time     52.8303
       DOS:  cpu time      0.0023: real time      0.0024
    CHARGE:  cpu time      1.5376: real time      1.5506
    MIXING:  cpu time      0.0124: real time      0.0126
    --------------------------------------------
      LOOP:  cpu time     54.2861: real time     54.8284

 eigenvalue-minimisations  :  4392
 total energy-change (2. order) : 0.6024151E+00  (-0.9462393E+00)
 number of electron     383.9999505 magnetization 
 augmentation part       32.4693973 magnetization 

 Broyden mixing:
  rms(total) = 0.98352E+00    rms(broyden)= 0.98313E+00
  rms(prec ) = 0.10965E+01
  weight for this iteration     100.00

 eigenvalues of (default mixing * dielectric matrix)
  average eigenvalue GAMMA=   1.3723
  1.3317  1.4129

 Free energy of the ion-electron system (eV)
  ---------------------------------------------------
  alpha Z        PSCENC =       722.59730984
  Ewald energy   TEWEN  =    -20511.20251311
  -Hartree energ DENC   =     -5367.53249910
  -exchange      EXHF   =         0.00000000
  -V(xc)+E(xc)   XCENC  =       627.11023031
  PAW double counting   =     32340.51677673   -31422.10921713
  entropy T*S    EENTRO =         0.00052460
  eigenvalues    EBANDS =       575.65012417
  atomic energy  EATOM  =     22461.85434800
  Solvation  Ediel_sol  =         0.00000000
  ---------------------------------------------------
  free energy    TOTEN  =      -573.11491569 eV

  energy without entropy =     -573.11544029  energy(sigma->0) =     -573.11509056


--------------------------------------------------------------------------------------------------------




--------------------------------------- Iteration      1(   8)  ---------------------------------------


    POTLOK:  cpu time      0.3487: real time      0.3516
    SETDIJ:  cpu time      0.0834: real time      0.0839
     EDDAV:  cpu time     51.5418: real time     52.0386
       DOS:  cpu time      0.0023: real time      0.0023
    CHARGE:  cpu time      1.5403: real time      1.5574
    MIXING:  cpu time      0.0129: real time      0.0130
    --------------------------------------------
      LOOP:  cpu time     53.5294: real time     54.0467

 eigenvalue-minimisations  :  4312
 total energy-change (2. order) :-0.3104034E-01  (-0.5416934E-01)
 number of electron     383.9999503 magnetization 
 augmentation part       32.6105822 magnetization 

 Broyden mixing:
  rms(total) = 0.28339E+00    rms(broyden)= 0.28338E+00
  rms(prec ) = 0.33732E+00
  weight for this iteration     100.00

 eigenvalues of (default mixing * dielectric matrix)
  average eigenvalue GAMMA=   1.5893
  2.5222  1.1229  1.1229

 Free energy of the ion-electron system (eV)
  ---------------------------------------------------
  alpha Z        PSCENC =       722.59730984
  Ewald energy   TEWEN  =    -20511.20251311
  -Hartree energ DENC   =     -5384.57141322
  -exchange      EXHF   =         0.00000000
  -V(xc)+E(xc)   XCENC  =       629.91243018
  PAW double counting   =     37351.79815866   -36433.27079070
  entropy T*S    EENTRO =         0.00055014
  eigenvalues    EBANDS =       589.73596418
  atomic energy  EATOM  =     22461.85434800
  Solvation  Ediel_sol  =         0.00000000
  ---------------------------------------------------
  free energy    TOTEN  =      -573.14595603 eV

  energy without entropy =     -573.14650617  energy(sigma->0) =     -573.14613941


--------------------------------------------------------------------------------------------------------




--------------------------------------- Iteration      1(   9)  ---------------------------------------


    POTLOK:  cpu time      0.3419: real time      0.3445
    SETDIJ:  cpu time      0.0946: real time      0.0951
     EDDAV:  cpu time     51.8961: real time     52.3953
       DOS:  cpu time      0.0022: real time      0.0024
    CHARGE:  cpu time      1.5476: real time      1.5622
    MIXING:  cpu time      0.0131: real time      0.0132
    --------------------------------------------
      LOOP:  cpu time     53.8956: real time     54.4128

 eigenvalue-minimisations  :  4344
 total energy-change (2. order) :-0.3114219E-01  (-0.2018541E-01)
 number of electron     383.9999504 magnetization 
 augmentation part       32.5000457 magnetization 

 Broyden mixing:
  rms(total) = 0.85037E-01    rms(broyden)= 0.84993E-01
  rms(prec ) = 0.88008E-01
  weight for this iteration     100.00

 eigenvalues of (default mixing * dielectric matrix)
  average eigenvalue GAMMA=   1.7733
  1.0579  1.0579  2.4887  2.4887

 Free energy of the ion-electron system (eV)
  ---------------------------------------------------
  alpha Z        PSCENC =       722.59730984
  Ewald energy   TEWEN  =    -20511.20251311
  -Hartree energ DENC   =     -5418.27578440
  -exchange      EXHF   =         0.00000000
  -V(xc)+E(xc)   XCENC  =       633.20761035
  PAW double counting   =     39516.18880339   -38598.18649311
  entropy T*S    EENTRO =         0.00054960
  eigenvalues    EBANDS =       620.63907122
  atomic energy  EATOM  =     22461.85434800
  Solvation  Ediel_sol  =         0.00000000
  ---------------------------------------------------
  free energy    TOTEN  =      -573.17709822 eV

  energy without entropy =     -573.17764782  energy(sigma->0) =     -573.17728142


--------------------------------------------------------------------------------------------------------




--------------------------------------- Iteration      1(  10)  ---------------------------------------


    POTLOK:  cpu time      0.3435: real time      0.3462
    SETDIJ:  cpu time      0.0835: real time      0.0839
     EDDAV:  cpu time     51.6401: real time     52.1471
       DOS:  cpu time      0.0022: real time      0.0024
    CHARGE:  cpu time      1.5500: real time      1.5645
    MIXING:  cpu time      0.0146: real time      0.0147
    --------------------------------------------
      LOOP:  cpu time     53.6338: real time     54.1588

 eigenvalue-minimisations  :  4312
 total energy-change (2. order) :-0.4488830E-02  (-0.2687411E-02)
 number of electron     383.9999503 magnetization 
 augmentation part       32.5145511 magnetization 

 Broyden mixing:
  rms(total) = 0.26167E-01    rms(broyden)= 0.26142E-01
  rms(prec ) = 0.32523E-01
  weight for this iteration     100.00

 eigenvalues of (default mixing * dielectric matrix)
  average eigenvalue GAMMA=   1.5526
  2.6159  2.2517  0.9901  0.9901  0.9151

 Free energy of the ion-electron system (eV)
  ---------------------------------------------------
  alpha Z        PSCENC =       722.59730984
  Ewald energy   TEWEN  =    -20511.20251311
  -Hartree energ DENC   =     -5416.98005538
  -exchange      EXHF   =         0.00000000
  -V(xc)+E(xc)   XCENC  =       633.18008704
  PAW double counting   =     38798.47491513   -37880.38132318
  entropy T*S    EENTRO =         0.00053666
  eigenvalues    EBANDS =       619.27510794
  atomic energy  EATOM  =     22461.85434800
  Solvation  Ediel_sol  =         0.00000000
  ---------------------------------------------------
  free energy    TOTEN  =      -573.18158705 eV

  energy without entropy =     -573.18212371  energy(sigma->0) =     -573.18176594


--------------------------------------------------------------------------------------------------------




--------------------------------------- Iteration      1(  11)  ---------------------------------------


    POTLOK:  cpu time      0.3429: real time      0.3456
    SETDIJ:  cpu time      0.0831: real time      0.0836
     EDDAV:  cpu time     55.4672: real time     56.0069
       DOS:  cpu time      0.0023: real time      0.0025
    CHARGE:  cpu time      1.5607: real time      1.5740
    MIXING:  cpu time      0.0149: real time      0.0150
    --------------------------------------------
      LOOP:  cpu time     57.4711: real time     58.0276

 eigenvalue-minimisations  :  4720
 total energy-change (2. order) : 0.1021025E-02  (-0.5484501E-03)
 number of electron     383.9999504 magnetization 
 augmentation part       32.5095091 magnetization 

 Broyden mixing:
  rms(total) = 0.19870E-01    rms(broyden)= 0.19866E-01
  rms(prec ) = 0.21515E-01
  weight for this iteration     100.00

 eigenvalues of (default mixing * dielectric matrix)
  average eigenvalue GAMMA=   1.5845
  2.8457  2.5081  1.0530  1.0530  1.0235  1.0235

 Free energy of the ion-electron system (eV)
  ---------------------------------------------------
  alpha Z        PSCENC =       722.59730984
  Ewald energy   TEWEN  =    -20511.20251311
  -Hartree energ DENC   =     -5417.79840176
  -exchange      EXHF   =         0.00000000
  -V(xc)+E(xc)   XCENC  =       633.25146171
  PAW double counting   =     38871.93229286   -37953.86077147
  entropy T*S    EENTRO =         0.00054378
  eigenvalues    EBANDS =       620.04516412
  atomic energy  EATOM  =     22461.85434800
  Solvation  Ediel_sol  =         0.00000000
  ---------------------------------------------------
  free energy    TOTEN  =      -573.18056602 eV

  energy without entropy =     -573.18110981  energy(sigma->0) =     -573.18074729


--------------------------------------------------------------------------------------------------------




--------------------------------------- Iteration      1(  12)  ---------------------------------------


    POTLOK:  cpu time      0.3490: real time      0.3518
    SETDIJ:  cpu time      0.0833: real time      0.0838
     EDDAV:  cpu time     50.9846: real time     51.4754
       DOS:  cpu time      0.0024: real time      0.0026
    CHARGE:  cpu time      1.5661: real time      1.5800
    MIXING:  cpu time      0.0159: real time      0.0161
    --------------------------------------------
      LOOP:  cpu time     53.0013: real time     53.5095

 eigenvalue-minimisations  :  4256
 total energy-change (2. order) :-0.1749198E-04  (-0.2370868E-03)
 number of electron     383.9999504 magnetization 
 augmentation part       32.5159919 magnetization 

 Broyden mixing:
  rms(total) = 0.22285E-02    rms(broyden)= 0.21879E-02
  rms(prec ) = 0.28088E-02
  weight for this iteration     100.00

 eigenvalues of (default mixing * dielectric matrix)
  average eigenvalue GAMMA=   1.5117
  2.7999  2.4639  1.1988  1.0491  1.0491  1.0103  1.0103

 Free energy of the ion-electron system (eV)
  ---------------------------------------------------
  alpha Z        PSCENC =       722.59730984
  Ewald energy   TEWEN  =    -20511.20251311
  -Hartree energ DENC   =     -5417.18115297
  -exchange      EXHF   =         0.00000000
  -V(xc)+E(xc)   XCENC  =       633.21364720
  PAW double counting   =     38727.31258506   -37809.22048374
  entropy T*S    EENTRO =         0.00054649
  eigenvalues    EBANDS =       619.44512970
  atomic energy  EATOM  =     22461.85434800
  Solvation  Ediel_sol  =         0.00000000
  ---------------------------------------------------
  free energy    TOTEN  =      -573.18058352 eV

  energy without entropy =     -573.18113000  energy(sigma->0) =     -573.18076568


--------------------------------------------------------------------------------------------------------




--------------------------------------- Iteration      1(  13)  ---------------------------------------


    POTLOK:  cpu time      0.3584: real time      0.3614
    SETDIJ:  cpu time      0.0831: real time      0.0835
     EDDAV:  cpu time     51.3557: real time     51.8585
       DOS:  cpu time      0.0023: real time      0.0026
    CHARGE:  cpu time      1.5726: real time      1.5864
    MIXING:  cpu time      0.0162: real time      0.0163
    --------------------------------------------
      LOOP:  cpu time     53.3883: real time     53.9087

 eigenvalue-minimisations  :  4288
 total energy-change (2. order) : 0.3132507E-05  (-0.1408069E-04)
 number of electron     383.9999504 magnetization 
 augmentation part       32.5145289 magnetization 

 Broyden mixing:
  rms(total) = 0.17109E-02    rms(broyden)= 0.17104E-02
  rms(prec ) = 0.19114E-02
  weight for this iteration     100.00

 eigenvalues of (default mixing * dielectric matrix)
  average eigenvalue GAMMA=   1.5098
  2.8158  2.4558  1.7873  1.0238  1.0238  1.0686  1.0686  0.8347

 Free energy of the ion-electron system (eV)
  ---------------------------------------------------
  alpha Z        PSCENC =       722.59730984
  Ewald energy   TEWEN  =    -20511.20251311
  -Hartree energ DENC   =     -5417.27285805
  -exchange      EXHF   =         0.00000000
  -V(xc)+E(xc)   XCENC  =       633.21822497
  PAW double counting   =     38733.57685233   -37815.48978930
  entropy T*S    EENTRO =         0.00054574
  eigenvalues    EBANDS =       619.53729920
  atomic energy  EATOM  =     22461.85434800
  Solvation  Ediel_sol  =         0.00000000
  ---------------------------------------------------
  free energy    TOTEN  =      -573.18058038 eV

  energy without entropy =     -573.18112612  energy(sigma->0) =     -573.18076230


--------------------------------------------------------------------------------------------------------




--------------------------------------- Iteration      1(  14)  ---------------------------------------


    POTLOK:  cpu time      0.3586: real time      0.3615
    SETDIJ:  cpu time      0.0830: real time      0.0835
     EDDAV:  cpu time     51.9835: real time     52.4909
       DOS:  cpu time      0.0024: real time      0.0026
    CHARGE:  cpu time      1.5812: real time      1.6018
    MIXING:  cpu time      0.0173: real time      0.0174
    --------------------------------------------
      LOOP:  cpu time     54.0259: real time     54.5577

 eigenvalue-minimisations  :  4376
 total energy-change (2. order) : 0.6508926E-06  (-0.2345316E-05)
 number of electron     383.9999504 magnetization 
 augmentation part       32.5152038 magnetization 

 Broyden mixing:
  rms(total) = 0.57879E-03    rms(broyden)= 0.57794E-03
  rms(prec ) = 0.60150E-03
  weight for this iteration     100.00

 eigenvalues of (default mixing * dielectric matrix)
  average eigenvalue GAMMA=   1.5168
  2.8397  2.4974  2.1256  1.0234  1.0234  0.9762  0.9762  1.0946  1.0946

 Free energy of the ion-electron system (eV)
  ---------------------------------------------------
  alpha Z        PSCENC =       722.59730984
  Ewald energy   TEWEN  =    -20511.20251311
  -Hartree energ DENC   =     -5417.19924721
  -exchange      EXHF   =         0.00000000
  -V(xc)+E(xc)   XCENC  =       633.21125540
  PAW double counting   =     38726.52955424   -37808.44048322
  entropy T*S    EENTRO =         0.00054556
  eigenvalues    EBANDS =       619.46865077
  atomic energy  EATOM  =     22461.85434800
  Solvation  Ediel_sol  =         0.00000000
  ---------------------------------------------------
  free energy    TOTEN  =      -573.18057973 eV

  energy without entropy =     -573.18112529  energy(sigma->0) =     -573.18076159


--------------------------------------------------------------------------------------------------------




--------------------------------------- Iteration      1(  15)  ---------------------------------------


    POTLOK:  cpu time      0.3654: real time      0.3685
    SETDIJ:  cpu time      0.0832: real time      0.0846
     EDDAV:  cpu time     33.7731: real time     34.1075
       DOS:  cpu time      0.0025: real time      0.0027
    --------------------------------------------
      LOOP:  cpu time     34.2241: real time     34.5632

 eigenvalue-minimisations  :  2488
 total energy-change (2. order) : 0.2305896E-06  (-0.1050988E-06)
 number of electron     383.9999504 magnetization 
 augmentation part       32.5152038 magnetization 

 Free energy of the ion-electron system (eV)
  ---------------------------------------------------
  alpha Z        PSCENC =       722.59730984
  Ewald energy   TEWEN  =    -20511.20251311
  -Hartree energ DENC   =     -5417.21567382
  -exchange      EXHF   =         0.00000000
  -V(xc)+E(xc)   XCENC  =       633.21159285
  PAW double counting   =     38723.89142258   -37805.80242452
  entropy T*S    EENTRO =         0.00054562
  eigenvalues    EBANDS =       619.48481306
  atomic energy  EATOM  =     22461.85434800
  Solvation  Ediel_sol  =         0.00000000
  ---------------------------------------------------
  free energy    TOTEN  =      -573.18057950 eV

  energy without entropy =     -573.18112512  energy(sigma->0) =     -573.18076138


--------------------------------------------------------------------------------------------------------




 average (electrostatic) potential at core
  the test charge radii are     1.0406  0.7215
  (the norm of the test charge is              1.0000)
       1 -68.6826       2 -68.6826       3 -68.6826       4 -68.6826       5 -68.6826
       6 -68.6826       7 -68.6826       8 -68.6826       9 -68.6826      10 -68.6826
      11 -68.6826      12 -68.6826      13 -68.6826      14 -68.6826      15 -68.6826
      16 -68.6827      17 -68.6826      18 -68.6826      19 -68.6826      20 -68.6826
      21 -68.6826      22 -68.6826      23 -68.6826      24 -68.6826      25 -68.6826
      26 -68.6826      27 -68.6826      28 -68.6826      29 -68.6826      30 -68.6826
      31 -68.6826      32 -68.6826      33 -64.9379      34 -64.9379      35 -64.9379
      36 -64.9379      37 -64.9379      38 -64.9379      39 -64.9379      40 -64.9379
      41 -64.9379      42 -64.9379      43 -64.9379      44 -64.9379      45 -64.9379
      46 -64.9379      47 -64.9379      48 -64.9379      49 -64.9379      50 -64.9379
      51 -64.9379      52 -64.9379      53 -64.9379      54 -64.9379      55 -64.9379
      56 -64.9379      57 -64.9379      58 -64.9379      59 -64.9379      60 -64.9379
      61 -64.9379      62 -64.9379      63 -64.9379      64 -64.9379      65 -64.7469
      66 -64.7469      67 -64.7469      68 -64.7469      69 -64.7469      70 -64.7469
      71 -64.7469      72 -64.7469      73 -64.7469      74 -64.7469      75 -64.7469
      76 -64.7469      77 -64.7469      78 -64.7469      79 -64.7469      80 -64.7469



 E-fermi :   8.5426     XC(G=0): -12.6445     alpha+bet :-20.0264

 Fermi energy:         8.5425514947

 k-point     1 :       0.1250    0.1250    0.1250
  band No.  band energies     occupation 
      1     -12.1007      2.00000
      2     -11.3530      2.00000
      3     -11.3179      2.00000
      4     -10.9013      2.00000
      5     -10.8536      2.00000
      6     -10.8174      2.00000
      7     -10.6570      2.00000
      8     -10.2780      2.00000
      9     -10.2597      2.00000
     10     -10.1831      2.00000
     11     -10.1721      2.00000
     12      -9.9765      2.00000
     13      -9.8611      2.00000
     14      -9.8011      2.00000
     15      -9.6754      2.00000
     16      -9.5049      2.00000
     17      -9.4847      2.00000
     18      -9.3633      2.00000
     19      -9.3252      2.00000
     20      -9.2992      2.00000
     21      -9.2663      2.00000
     22      -9.2574      2.00000
     23      -9.1702      2.00000
     24      -9.0850      2.00000
     25      -9.0678      2.00000
     26      -9.0669      2.00000
     27      -9.0065      2.00000
     28      -8.9133      2.00000
     29      -8.8511      2.00000
     30      -8.7229      2.00000
     31      -8.7119      2.00000
     32      -8.7110      2.00000
     33      -8.5759      2.00000
     34      -8.5362      2.00000
     35      -8.5052      2.00000
     36      -8.4976      2.00000
     37      -8.4760      2.00000
     38      -8.4663      2.00000
     39      -8.4592      2.00000
     40      -8.4255      2.00000
     41      -8.3523      2.00000
     42      -8.3388      2.00000
     43      -8.3257      2.00000
     44      -8.2858      2.00000
     45      -8.1879      2.00000
     46      -8.1196      2.00000
     47      -8.0245      2.00000
     48      -8.0020      2.00000
     49       1.1528      2.00000
     50       1.2319      2.00000
     51       1.2495      2.00000
     52       1.3239      2.00000
     53       1.3568      2.00000
     54       1.4029      2.00000
     55       1.4593      2.00000
     56       1.7180      2.00000
     57       1.7245      2.00000
     58       1.7369      2.00000
     59       1.7436      2.00000
     60       1.7920      2.00000
     61       1.8413      2.00000
     62       1.8837      2.00000
     63       1.9516      2.00000
     64       1.9966      2.00000
     65       2.0088      2.00000
     66       2.0801      2.00000
     67       2.2439      2.00000
     68       2.3854      2.00000
     69       2.4495      2.00000
     70       2.4799      2.00000
     71       2.5241      2.00000
     72       2.6048      2.00000
     73       2.7122      2.00000
     74       2.7604      2.00000
     75       2.7865      2.00000
     76       2.9235      2.00000
     77       2.9762      2.00000
     78       2.9900      2.00000
     79       3.0733      2.00000
     80       3.1451      2.00000
     81       3.1466      2.00000
     82       3.1509      2.00000
     83       3.1601      2.00000
     84       3.2750      2.00000
     85       3.3322      2.00000
     86       3.3716      2.00000
     87       3.4476      2.00000
     88       3.4674      2.00000
     89       3.4755      2.00000
     90       3.4801      2.00000
     91       3.5592      2.00000
     92       3.6055      2.00000
     93       3.7122      2.00000
     94       3.7989      2.00000
     95       3.9673      2.00000
     96       4.0965      2.00000
     97       4.1930      2.00000
     98       4.3488      2.00000
     99       4.3665      2.00000
    100       4.3751      2.00000
    101       4.5096      2.00000
    102       4.5358      2.00000
    103       4.5727      2.00000
    104       4.6170      2.00000
    105       4.7320      2.00000
    106       4.8024      2.00000
    107       4.9824      2.00000
    108       5.0121      2.00000
    109       5.0987      2.00000
    110       5.1146      2.00000
    111       5.1665      2.00000
    112       5.2282      2.00000
    113       5.3102      2.00000
    114       5.3143      2.00000
    115       5.3434      2.00000
    116       5.3644      2.00000
    117       5.4118      2.00000
    118       5.4331      2.00000
    119       5.4650      2.00000
    120       5.6342      2.00000
    121       5.6684      2.00000
    122       5.6700      2.00000
    123       5.6986      2.00000
    124       5.7076      2.00000
    125       5.7352      2.00000
    126       5.7884      2.00000
    127       5.8631      2.00000
    128       5.9046      2.00000
    129       6.0418      2.00000
    130       6.0866      2.00000
    131       6.1936      2.00000
    132       6.2095      2.00000
    133       6.2837      2.00000
    134       6.2859      2.00000
    135       6.4372      2.00000
    136       6.4640      2.00000
    137       6.4691      2.00000
    138       6.5125      2.00000
    139       6.5310      2.00000
    140       6.6189      2.00000
    141       6.6421      2.00000
    142       6.6543      2.00000
    143       6.7043      2.00000
    144       6.7076      2.00000
    145       6.7237      2.00000
    146       6.7486      2.00000
    147       6.7752      2.00000
    148       6.7881      2.00000
    149       6.8348      2.00000
    150       6.9040      2.00000
    151       6.9856      2.00000
    152       7.0137      2.00000
    153       7.0161      2.00000
    154       7.0404      2.00000
    155       7.0659      2.00000
    156       7.0698      2.00000
    157       7.1814      2.00000
    158       7.1863      2.00000
    159       7.2840      2.00000
[...]
     0.000000000  9.387444506  0.000000000     0.000000000  0.106525264  0.000000000
     0.000000000  0.000000000  6.671830403     0.000000000  0.000000000  0.149883906

  length of vectors
     9.128037402  9.387444506  6.671830403     0.109552575  0.106525264  0.149883906


 FORCES acting on ions
    electron-ion (+dipol)            ewald-force                    non-local-force                 convergence-correction
 -----------------------------------------------------------------------------------------------
   0.381E+01 -.334E+01 0.182E+02   -.364E+01 0.781E+00 -.174E+02   -.183E+00 0.295E+01 -.108E+01   -.677E-05 -.310E-05 0.480E-04
   0.381E+01 -.334E+01 0.182E+02   -.364E+01 0.781E+00 -.174E+02   -.183E+00 0.295E+01 -.108E+01   -.677E-05 0.131E-06 0.478E-04
   0.381E+01 -.334E+01 0.182E+02   -.364E+01 0.781E+00 -.174E+02   -.183E+00 0.295E+01 -.108E+01   -.840E-05 -.309E-05 0.479E-04
   0.381E+01 -.334E+01 0.182E+02   -.364E+01 0.781E+00 -.174E+02   -.183E+00 0.295E+01 -.108E+01   -.840E-05 0.133E-06 0.477E-04
   0.381E+01 0.334E+01 -.182E+02   -.364E+01 -.781E+00 0.174E+02   -.183E+00 -.295E+01 0.108E+01   -.677E-05 0.152E-05 -.474E-04
   0.381E+01 0.334E+01 -.182E+02   -.364E+01 -.781E+00 0.174E+02   -.183E+00 -.295E+01 0.108E+01   -.677E-05 0.144E-05 -.474E-04
   0.381E+01 0.334E+01 -.182E+02   -.364E+01 -.781E+00 0.174E+02   -.183E+00 -.295E+01 0.108E+01   -.840E-05 0.152E-05 -.473E-04
   0.381E+01 0.334E+01 -.182E+02   -.364E+01 -.781E+00 0.174E+02   -.183E+00 -.295E+01 0.108E+01   -.840E-05 0.144E-05 -.473E-04
   -.381E+01 -.334E+01 -.182E+02   0.364E+01 0.781E+00 0.174E+02   0.183E+00 0.295E+01 0.108E+01   0.839E-05 -.990E-06 -.481E-04
   -.381E+01 -.334E+01 -.182E+02   0.364E+01 0.781E+00 0.174E+02   0.183E+00 0.295E+01 0.108E+01   0.839E-05 -.194E-05 -.481E-04
   -.381E+01 -.334E+01 -.182E+02   0.364E+01 0.781E+00 0.174E+02   0.183E+00 0.295E+01 0.108E+01   0.670E-05 -.991E-06 -.482E-04
   -.381E+01 -.334E+01 -.182E+02   0.364E+01 0.781E+00 0.174E+02   0.183E+00 0.295E+01 0.108E+01   0.670E-05 -.194E-05 -.482E-04
   -.381E+01 0.334E+01 0.182E+02   0.364E+01 -.781E+00 -.174E+02   0.183E+00 -.295E+01 -.108E+01   0.839E-05 0.312E-05 0.477E-04
   -.381E+01 0.334E+01 0.182E+02   0.364E+01 -.781E+00 -.174E+02   0.183E+00 -.295E+01 -.108E+01   0.839E-05 -.192E-06 0.475E-04
   -.381E+01 0.334E+01 0.182E+02   0.364E+01 -.781E+00 -.174E+02   0.183E+00 -.295E+01 -.108E+01   0.670E-05 0.313E-05 0.478E-04
   -.381E+01 0.334E+01 0.182E+02   0.364E+01 -.781E+00 -.174E+02   0.183E+00 -.295E+01 -.108E+01   0.671E-05 -.190E-06 0.476E-04
   -.381E+01 0.334E+01 -.182E+02   0.364E+01 -.781E+00 0.174E+02   0.183E+00 -.295E+01 0.108E+01   0.763E-05 0.313E-05 -.474E-04
   -.381E+01 0.334E+01 -.182E+02   0.364E+01 -.781E+00 0.174E+02   0.183E+00 -.295E+01 0.108E+01   0.763E-05 -.189E-06 -.472E-04
   -.381E+01 0.334E+01 -.182E+02   0.364E+01 -.781E+00 0.174E+02   0.183E+00 -.295E+01 0.108E+01   0.754E-05 0.313E-05 -.475E-04
   -.381E+01 0.334E+01 -.182E+02   0.364E+01 -.781E+00 0.174E+02   0.183E+00 -.295E+01 0.108E+01   0.754E-05 -.189E-06 -.473E-04
   -.381E+01 -.334E+01 0.182E+02   0.364E+01 0.781E+00 -.174E+02   0.183E+00 0.295E+01 -.108E+01   0.763E-05 -.992E-06 0.479E-04
   -.381E+01 -.334E+01 0.182E+02   0.364E+01 0.781E+00 -.174E+02   0.183E+00 0.295E+01 -.108E+01   0.763E-05 -.194E-05 0.479E-04
   -.381E+01 -.334E+01 0.182E+02   0.364E+01 0.781E+00 -.174E+02   0.183E+00 0.295E+01 -.108E+01   0.754E-05 -.992E-06 0.479E-04
   -.381E+01 -.334E+01 0.182E+02   0.364E+01 0.781E+00 -.174E+02   0.183E+00 0.295E+01 -.108E+01   0.754E-05 -.194E-05 0.479E-04
   0.381E+01 0.334E+01 0.182E+02   -.364E+01 -.781E+00 -.174E+02   -.183E+00 -.295E+01 -.108E+01   -.744E-05 0.152E-05 0.476E-04
   0.381E+01 0.334E+01 0.182E+02   -.364E+01 -.781E+00 -.174E+02   -.183E+00 -.295E+01 -.108E+01   -.745E-05 0.144E-05 0.477E-04
   0.381E+01 0.334E+01 0.182E+02   -.364E+01 -.781E+00 -.174E+02   -.183E+00 -.295E+01 -.108E+01   -.765E-05 0.152E-05 0.476E-04
   0.381E+01 0.334E+01 0.182E+02   -.364E+01 -.781E+00 -.174E+02   -.183E+00 -.295E+01 -.108E+01   -.765E-05 0.144E-05 0.476E-04
   0.381E+01 -.334E+01 -.182E+02   -.364E+01 0.781E+00 0.174E+02   -.183E+00 0.295E+01 0.108E+01   -.744E-05 -.309E-05 -.483E-04
   0.381E+01 -.334E+01 -.182E+02   -.364E+01 0.781E+00 0.174E+02   -.183E+00 0.295E+01 0.108E+01   -.744E-05 0.131E-06 -.481E-04
   0.381E+01 -.334E+01 -.182E+02   -.364E+01 0.781E+00 0.174E+02   -.183E+00 0.295E+01 0.108E+01   -.764E-05 -.309E-05 -.482E-04
   0.381E+01 -.334E+01 -.182E+02   -.364E+01 0.781E+00 0.174E+02   -.183E+00 0.295E+01 0.108E+01   -.765E-05 0.135E-06 -.480E-04
   0.742E+01 0.363E+01 -.202E+02   -.605E+01 -.287E+01 0.215E+02   -.124E+01 -.651E+00 -.116E+01   -.961E-04 0.363E-04 -.475E-03
   0.742E+01 0.363E+01 -.202E+02   -.605E+01 -.287E+01 0.215E+02   -.124E+01 -.651E+00 -.116E+01   -.961E-04 0.435E-04 -.476E-03
   0.742E+01 0.363E+01 -.202E+02   -.605E+01 -.287E+01 0.215E+02   -.124E+01 -.651E+00 -.116E+01   -.995E-04 0.364E-04 -.475E-03
   0.742E+01 0.363E+01 -.202E+02   -.605E+01 -.287E+01 0.215E+02   -.124E+01 -.651E+00 -.116E+01   -.995E-04 0.435E-04 -.476E-03
   0.742E+01 -.363E+01 0.202E+02   -.605E+01 0.287E+01 -.215E+02   -.124E+01 0.651E+00 0.116E+01   -.961E-04 -.403E-04 0.477E-03
   0.742E+01 -.363E+01 0.202E+02   -.605E+01 0.287E+01 -.215E+02   -.124E+01 0.651E+00 0.116E+01   -.961E-04 -.395E-04 0.477E-03
   0.742E+01 -.363E+01 0.202E+02   -.605E+01 0.287E+01 -.215E+02   -.124E+01 0.651E+00 0.116E+01   -.995E-04 -.404E-04 0.476E-03
   0.742E+01 -.363E+01 0.202E+02   -.605E+01 0.287E+01 -.215E+02   -.124E+01 0.651E+00 0.116E+01   -.995E-04 -.395E-04 0.476E-03
   -.742E+01 0.363E+01 0.202E+02   0.605E+01 -.287E+01 -.215E+02   0.124E+01 -.651E+00 0.116E+01   0.996E-04 0.416E-04 0.476E-03
   -.742E+01 0.363E+01 0.202E+02   0.605E+01 -.287E+01 -.215E+02   0.124E+01 -.651E+00 0.116E+01   0.996E-04 0.384E-04 0.476E-03
   -.742E+01 0.363E+01 0.202E+02   0.605E+01 -.287E+01 -.215E+02   0.124E+01 -.651E+00 0.116E+01   0.957E-04 0.415E-04 0.477E-03
   -.742E+01 0.363E+01 0.202E+02   0.605E+01 -.287E+01 -.215E+02   0.124E+01 -.651E+00 0.116E+01   0.957E-04 0.384E-04 0.477E-03
   -.742E+01 -.363E+01 -.202E+02   0.605E+01 0.287E+01 0.215E+02   0.124E+01 0.651E+00 -.116E+01   0.996E-04 -.360E-04 -.477E-03
   -.742E+01 -.363E+01 -.202E+02   0.605E+01 0.287E+01 0.215E+02   0.124E+01 0.651E+00 -.116E+01   0.996E-04 -.440E-04 -.478E-03
   -.742E+01 -.363E+01 -.202E+02   0.605E+01 0.287E+01 0.215E+02   0.124E+01 0.651E+00 -.116E+01   0.957E-04 -.360E-04 -.477E-03
   -.742E+01 -.363E+01 -.202E+02   0.605E+01 0.287E+01 0.215E+02   0.124E+01 0.651E+00 -.116E+01   0.957E-04 -.440E-04 -.478E-03
   -.742E+01 -.363E+01 0.202E+02   0.605E+01 0.287E+01 -.215E+02   0.124E+01 0.651E+00 0.116E+01   0.972E-04 -.360E-04 0.476E-03
   -.742E+01 -.363E+01 0.202E+02   0.605E+01 0.287E+01 -.215E+02   0.124E+01 0.651E+00 0.116E+01   0.971E-04 -.440E-04 0.477E-03
   -.742E+01 -.363E+01 0.202E+02   0.605E+01 0.287E+01 -.215E+02   0.124E+01 0.651E+00 0.116E+01   0.987E-04 -.360E-04 0.477E-03
   -.742E+01 -.363E+01 0.202E+02   0.605E+01 0.287E+01 -.215E+02   0.124E+01 0.651E+00 0.116E+01   0.987E-04 -.440E-04 0.477E-03
   -.742E+01 0.363E+01 -.202E+02   0.605E+01 -.287E+01 0.215E+02   0.124E+01 -.651E+00 -.116E+01   0.971E-04 0.415E-04 -.475E-03
   -.742E+01 0.363E+01 -.202E+02   0.605E+01 -.287E+01 0.215E+02   0.124E+01 -.651E+00 -.116E+01   0.972E-04 0.384E-04 -.475E-03
   -.742E+01 0.363E+01 -.202E+02   0.605E+01 -.287E+01 0.215E+02   0.124E+01 -.651E+00 -.116E+01   0.987E-04 0.416E-04 -.476E-03
   -.742E+01 0.363E+01 -.202E+02   0.605E+01 -.287E+01 0.215E+02   0.124E+01 -.651E+00 -.116E+01   0.987E-04 0.384E-04 -.476E-03
   0.742E+01 -.363E+01 -.202E+02   -.605E+01 0.287E+01 0.215E+02   -.124E+01 0.651E+00 -.116E+01   -.967E-04 -.403E-04 -.478E-03
   0.742E+01 -.363E+01 -.202E+02   -.605E+01 0.287E+01 0.215E+02   -.124E+01 0.651E+00 -.116E+01   -.967E-04 -.395E-04 -.477E-03
   0.742E+01 -.363E+01 -.202E+02   -.605E+01 0.287E+01 0.215E+02   -.124E+01 0.651E+00 -.116E+01   -.989E-04 -.404E-04 -.478E-03
   0.742E+01 -.363E+01 -.202E+02   -.605E+01 0.287E+01 0.215E+02   -.124E+01 0.651E+00 -.116E+01   -.990E-04 -.395E-04 -.477E-03
   0.742E+01 0.363E+01 0.202E+02   -.605E+01 -.287E+01 -.215E+02   -.124E+01 -.651E+00 0.116E+01   -.968E-04 0.363E-04 0.476E-03
   0.742E+01 0.363E+01 0.202E+02   -.605E+01 -.287E+01 -.215E+02   -.124E+01 -.651E+00 0.116E+01   -.967E-04 0.435E-04 0.477E-03
   0.742E+01 0.363E+01 0.202E+02   -.605E+01 -.287E+01 -.215E+02   -.124E+01 -.651E+00 0.116E+01   -.990E-04 0.364E-04 0.476E-03
   0.742E+01 0.363E+01 0.202E+02   -.605E+01 -.287E+01 -.215E+02   -.124E+01 -.651E+00 0.116E+01   -.990E-04 0.435E-04 0.477E-03
   -.220E+02 -.442E-04 -.336E-04   0.232E+02 0.128E-04 0.439E-04   -.102E+01 -.999E-19 0.879E-19   -.133E-03 -.233E-05 -.128E-05
   -.220E+02 -.418E-04 -.291E-04   0.232E+02 -.460E-05 0.522E-05   -.102E+01 -.156E-18 0.753E-19   -.133E-03 0.232E-05 -.657E-06
   -.220E+02 -.442E-04 -.336E-04   0.232E+02 0.128E-04 0.439E-04   -.102E+01 -.127E-18 -.141E-18   -.136E-03 -.233E-05 -.128E-05
   -.220E+02 -.418E-04 -.291E-04   0.232E+02 -.460E-05 0.522E-05   -.102E+01 -.125E-19 -.142E-18   -.136E-03 0.232E-05 -.657E-06
   0.220E+02 -.429E-04 -.395E-04   -.232E+02 -.155E-05 -.203E-04   0.102E+01 -.422E-19 -.553E-19   0.136E-03 0.319E-05 0.699E-06
   0.220E+02 -.448E-04 -.348E-04   -.232E+02 0.169E-04 -.465E-04   0.102E+01 -.446E-19 0.161E-18   0.136E-03 -.320E-05 0.127E-05
   0.220E+02 -.429E-04 -.395E-04   -.232E+02 -.155E-05 -.203E-04   0.102E+01 0.129E-19 -.524E-19   0.133E-03 0.319E-05 0.699E-06
   0.220E+02 -.448E-04 -.348E-04   -.232E+02 0.169E-04 -.465E-04   0.102E+01 -.892E-19 -.517E-19   0.133E-03 -.320E-05 0.127E-05
   0.220E+02 -.375E-04 -.499E-04   -.232E+02 -.427E-05 0.128E-04   0.102E+01 -.110E-18 -.632E-19   0.134E-03 0.319E-05 -.687E-06
   0.220E+02 -.394E-04 -.546E-04   -.232E+02 0.142E-04 0.390E-04   0.102E+01 0.434E-19 -.493E-19   0.134E-03 -.320E-05 -.125E-05
   0.220E+02 -.375E-04 -.499E-04   -.232E+02 -.427E-05 0.128E-04   0.102E+01 -.891E-19 0.156E-18   0.136E-03 0.319E-05 -.687E-06
   0.220E+02 -.394E-04 -.546E-04   -.232E+02 0.142E-04 0.390E-04   0.102E+01 0.979E-19 0.160E-18   0.136E-03 -.320E-05 -.125E-05
   -.220E+02 -.408E-04 -.139E-04   0.232E+02 0.156E-04 -.514E-04   -.102E+01 -.422E-19 0.784E-19   -.134E-03 -.233E-05 0.130E-05
   -.220E+02 -.384E-04 -.185E-04   0.232E+02 -.188E-05 -.127E-04   -.102E+01 -.902E-19 -.155E-18   -.134E-03 0.232E-05 0.669E-06
   -.220E+02 -.408E-04 -.139E-04   0.232E+02 0.156E-04 -.514E-04   -.102E+01 -.413E-19 0.838E-19   -.136E-03 -.233E-05 0.130E-05
   -.220E+02 -.384E-04 -.185E-04   0.232E+02 -.188E-05 -.127E-04   -.102E+01 -.896E-19 -.148E-18   -.136E-03 0.232E-05 0.669E-06
 -----------------------------------------------------------------------------------------------
   0.462E-02 -.217E-02 -.738E-03   0.128E-12 0.495E-13 0.225E-12   -.444E-15 -.244E-14 -.178E-14   0.114E-06 -.245E-07 0.765E-08


 POSITION                                       TOTAL-FORCE (eV/Angst)
 -----------------------------------------------------------------------------------
      1.15151      0.14736      2.60194        -0.012744      0.384284     -0.276829
      1.15151      4.84108      2.60194        -0.012744      0.384284     -0.276829
      5.71553      0.14736      2.60194        -0.012744      0.384284     -0.276829
      5.71553      4.84108      2.60194        -0.012744      0.384284     -0.276829
      1.15151      2.19950      4.06989        -0.012744     -0.384284      0.276829
      1.15151      6.89323      4.06989        -0.012744     -0.384284      0.276829
      5.71553      2.19950      4.06989        -0.012744     -0.384284      0.276829
      5.71553      6.89323      4.06989        -0.012744     -0.384284      0.276829
      1.13050      2.49422      0.73398         0.012744      0.384284      0.276829
      1.13050      7.18794      0.73398         0.012744      0.384284      0.276829
      5.69452      2.49422      0.73398         0.012744      0.384284      0.276829
      5.69452      7.18794      0.73398         0.012744      0.384284      0.276829
      1.13050      4.54637      5.93785         0.012744     -0.384284     -0.276829
      1.13050      9.24009      5.93785         0.012744     -0.384284     -0.276829
      5.69452      4.54637      5.93785         0.012744     -0.384284     -0.276829
      5.69452      9.24009      5.93785         0.012744     -0.384284     -0.276829
      3.41251      4.54637      4.06989         0.012744     -0.384284      0.276829
      3.41251      9.24009      4.06989         0.012744     -0.384284      0.276829
      7.97653      4.54637      4.06989         0.012744     -0.384284      0.276829
      7.97653      9.24009      4.06989         0.012744     -0.384284      0.276829
      3.41251      2.49422      2.60194         0.012744      0.384284     -0.276829
      3.41251      7.18794      2.60194         0.012744      0.384284     -0.276829
      7.97653      2.49422      2.60194         0.012744      0.384284     -0.276829
      7.97653      7.18794      2.60194         0.012744      0.384284     -0.276829
      3.43352      2.19950      5.93785        -0.012744     -0.384284     -0.276829
      3.43352      6.89323      5.93785        -0.012744     -0.384284     -0.276829
      7.99753      2.19950      5.93785        -0.012744     -0.384284     -0.276829
      7.99753      6.89323      5.93785        -0.012744     -0.384284     -0.276829
      3.43352      0.14736      0.73398        -0.012744      0.384284      0.276829
      3.43352      4.84108      0.73398        -0.012744      0.384284      0.276829
      7.99753      0.14736      0.73398        -0.012744      0.384284      0.276829
      7.99753      4.84108      0.73398        -0.012744      0.384284      0.276829
      0.48868      0.48059      4.36437         0.130740      0.109494      0.172684
      0.48868      5.17432      4.36437         0.130740      0.109494      0.172684
      5.05270      0.48059      4.36437         0.130740      0.109494      0.172684
      5.05270      5.17432      4.36437         0.130740      0.109494      0.172684
      0.48868      1.86627      2.30746         0.130740     -0.109494     -0.172684
      0.48868      6.55999      2.30746         0.130740     -0.109494     -0.172684
      5.05270      1.86627      2.30746         0.130740     -0.109494     -0.172684
      5.05270      6.55999      2.30746         0.130740     -0.109494     -0.172684
      1.79333      2.82746      5.64338        -0.130740      0.109494     -0.172684
      1.79333      7.52118      5.64338        -0.130740      0.109494     -0.172684
      6.35735      2.82746      5.64338        -0.130740      0.109494     -0.172684
      6.35735      7.52118      5.64338        -0.130740      0.109494     -0.172684
      1.79333      4.21313      1.02845        -0.130740     -0.109494      0.172684
      1.79333      8.90685      1.02845        -0.130740     -0.109494      0.172684
      6.35735      4.21313      1.02845        -0.130740     -0.109494      0.172684
      6.35735      8.90685      1.02845        -0.130740     -0.109494      0.172684
      4.07534      4.21313      2.30746        -0.130740     -0.109494     -0.172684
      4.07534      8.90685      2.30746        -0.130740     -0.109494     -0.172684
      8.63936      4.21313      2.30746        -0.130740     -0.109494     -0.172684
      8.63936      8.90685      2.30746        -0.130740     -0.109494     -0.172684
      4.07534      2.82746      4.36437        -0.130740      0.109494      0.172684
      4.07534      7.52118      4.36437        -0.130740      0.109494      0.172684
      8.63936      2.82746      4.36437        -0.130740      0.109494      0.172684
      8.63936      7.52118      4.36437        -0.130740      0.109494      0.172684
      2.77069      1.86627      1.02845         0.130740     -0.109494      0.172684
      2.77069      6.55999      1.02845         0.130740     -0.109494      0.172684
      7.33471      1.86627      1.02845         0.130740     -0.109494      0.172684
      7.33471      6.55999      1.02845         0.130740     -0.109494      0.172684
      2.77069      0.48059      5.64338         0.130740      0.109494     -0.172684
      2.77069      5.17432      5.64338         0.130740      0.109494     -0.172684
      7.33471      0.48059      5.64338         0.130740      0.109494     -0.172684
      7.33471      5.17432      5.64338         0.130740      0.109494     -0.172684
      0.22906      1.17343      0.00000         0.179583     -0.000000     -0.000000
      0.22906      5.86715      0.00000         0.179583     -0.000000     -0.000000
      4.79308      1.17343      0.00000         0.179583     -0.000000     -0.000000
      4.79308      5.86715      0.00000         0.179583     -0.000000     -0.000000
      2.05295      3.52029      3.33592        -0.179583     -0.000000     -0.000000
      2.05295      8.21401      3.33592        -0.179583     -0.000000     -0.000000
      6.61697      3.52029      3.33592        -0.179583     -0.000000     -0.000000
      6.61697      8.21401      3.33592        -0.179583     -0.000000     -0.000000
      4.33496      3.52029      0.00000        -0.179583     -0.000000     -0.000000
      4.33496      8.21401      0.00000        -0.179583     -0.000000     -0.000000
      8.89898      3.52029      0.00000        -0.179583     -0.000000     -0.000000
      8.89898      8.21401      0.00000        -0.179583     -0.000000     -0.000000
      2.51107      1.17343      3.33592         0.179583     -0.000000     -0.000000
      2.51107      5.86715      3.33592         0.179583     -0.000000     -0.000000
      7.07509      1.17343      3.33592         0.179583     -0.000000     -0.000000
      7.07509      5.86715      3.33592         0.179583     -0.000000     -0.000000
 -----------------------------------------------------------------------------------
    total drift:                                0.004625     -0.002173     -0.000738


--------------------------------------------------------------------------------------------------------



  FREE ENERGIE OF THE ION-ELECTRON SYSTEM (eV)
  ---------------------------------------------------
  free  energy   TOTEN  =      -573.18057950 eV

  energy  without entropy=     -573.18112512  energy(sigma->0) =     -573.18076138



--------------------------------------------------------------------------------------------------------


    POTLOK:  cpu time      0.3455: real time      0.3472


--------------------------------------------------------------------------------------------------------


 writing wavefunctions
     LOOP+:  cpu time    833.6944: real time    841.7747
    4ORBIT:  cpu time      0.0000: real time      0.0000

 total amount of memory used by VASP MPI-rank0   433845. kBytes
=======================================================================

   base      :      30000. kBytes
   nonlr-proj:       9878. kBytes
   fftplans  :      23216. kBytes
   grid      :      41250. kBytes
   one-center:        245. kBytes
   wavefun   :     329256. kBytes

  
  
 General timing and accounting informations for this job:
 ========================================================
  
                  Total CPU time used (sec):      842.822
                            User time (sec):      840.270
                          System time (sec):        2.552
                         Elapsed time (sec):      898.861
  
                   Maximum memory used (kb):      615184.
                   Average memory used (kb):          N/A
  
                          Minor page faults:       311850
                          Major page faults:            1
                 Voluntary context switches:          751
