 vasp.6.3.0 20Jan22 (build Jul  1 2024 12:21:46) complex                         
 executed on             LinuxGNU date 2024.10.21  12:39:17
 running    1 mpi-ranks, with    1 threads/rank
 distrk:  each k-point on    1 cores,    1 groups
 distr:  one band on NCORE=   1 cores,    1 groups


--------------------------------------------------------------------------------------------------------


 INCAR:
   SYSTEM = Alumina_orthorombic_cell_under_strain
   ISTART = 0
   ICHARG = 2
   ENCUT = 400
   ALGO = Normal
   PREC = Normal
   ISPIN = 1
   LWAVE = T             (Write WAVECAR)
   LCHARG = T             (Write CHGCAR)
   NPAR = 1
   EDIFF = 1E-6
   NSW = 0
   NELM = 100
   POTIM = 0.5
   IBRION = -1
   ISMEAR = 1
   SIGMA = 0.026
   EDIFFG = -0.001
   ISIF = 2
   LREAL = Auto

 POTCAR:    PAW_PBE Al 04Jan2001                  
 POTCAR:    PAW_PBE O 08Apr2002                   
 POTCAR:    PAW_PBE Al 04Jan2001                  
   SHA256 =  17880443556af62b473fe41b62a467bd001ad55d2cabe504a3f22e34d4e9db96 Al/POTCAR             
   COPYR  = (c) Copyright 04Jan2001 Georg Kresse                                                    
   COPYR  = This file is part of the software VASP. Any use, copying, and all other rights are regul
   COPYR  = If you do not have a valid VASP license, you may not use, copy or distribute this file. 
   VRHFIN =Al: s2p1                                                                                 
   LEXCH  = PE                                                                                      
   EATOM  =    53.5387 eV,    3.9350 Ry                                                             
                                                                                                    
   TITEL  = PAW_PBE Al 04Jan2001                                                                    
   LULTRA =        F    use ultrasoft PP ?                                                          
   IUNSCR =        1    unscreen: 0-lin 1-nonlin 2-no                                               
   RPACOR =    1.500    partial core radius                                                         
   POMASS =   26.981; ZVAL   =    3.000    mass and valenz                                          
   RCORE  =    1.900    outmost cutoff radius                                                       
   RWIGS  =    2.650; RWIGS  =    1.402    wigner-seitz radius (au A)                               
   ENMAX  =  240.300; ENMIN  =  180.225 eV                                                          
   ICORE  =        2    local potential                                                             
   LCOR   =        T    correct aug charges                                                         
   LPAW   =        T    paw PP                                                                      
   EAUG   =  291.052                                                                                
   DEXC   =    0.000                                                                                
   RMAX   =    1.939    core radius for proj-oper                                                   
   RAUG   =    1.300    factor for augmentation sphere                                              
   RDEP   =    1.966    radius for radial grids                                                     
   RDEPT  =    1.856    core radius for aug-charge                                                  
                                                                                                    
   Atomic configuration                                                                             
    6 entries                                                                                       
     n  l   j            E        occ.                                                              
     1  0  0.50     -1511.1048   2.0000                                                             
     2  0  0.50      -108.1629   2.0000                                                             
     2  1  1.50       -69.6402   6.0000                                                             
     3  0  0.50        -7.7528   2.0000                                                             
     3  1  1.50        -2.7121   1.0000                                                             
     3  2  2.50        -2.7212   0.0000                                                             
   Description                                                                                      
     l       E           TYP  RCUT    TYP  RCUT                                                     
     0     -7.7528455     23  1.900                                                                 
     0     -3.3096929     23  1.900                                                                 
     1     -2.7120682     23  1.900                                                                 
     1     13.6058260     23  1.900                                                                 
     2     -2.7211652      7  1.900                                                                 
  local pseudopotential read in
  partial core-charges read in
  partial kinetic energy density read in
  atomic valenz-charges read in
  non local Contribution for L=           0  read in
    real space projection operators read in
  non local Contribution for L=           0  read in
    real space projection operators read in
  non local Contribution for L=           1  read in
    real space projection operators read in
  non local Contribution for L=           1  read in
    real space projection operators read in
    PAW grid and wavefunctions read in

   number of l-projection  operators is LMAX  =           4
   number of lm-projection operators is LMMAX =           8

 POTCAR:    PAW_PBE O 08Apr2002                   
   SHA256 =  818f92134a0a090dccd8ba1447fa70422a3b330e708bb4f08108d8ae51209ddf O/POTCAR              
   COPYR  = (c) Copyright 08Apr2002 Georg Kresse                                                    
   COPYR  = This file is part of the software VASP. Any use, copying, and all other rights are regul
   COPYR  = If you do not have a valid VASP license, you may not use, copy or distribute this file. 
   VRHFIN =O: s2p4                                                                                  
   LEXCH  = PE                                                                                      
   EATOM  =   432.3788 eV,   31.7789 Ry                                                             
                                                                                                    
   TITEL  = PAW_PBE O 08Apr2002                                                                     
   LULTRA =        F    use ultrasoft PP ?                                                          
   IUNSCR =        1    unscreen: 0-lin 1-nonlin 2-no                                               
   RPACOR =    1.200    partial core radius                                                         
   POMASS =   16.000; ZVAL   =    6.000    mass and valenz                                          
   RCORE  =    1.520    outmost cutoff radius                                                       
   RWIGS  =    1.550; RWIGS  =    0.820    wigner-seitz radius (au A)                               
   ENMAX  =  400.000; ENMIN  =  300.000 eV                                                          
   ICORE  =        2    local potential                                                             
   LCOR   =        T    correct aug charges                                                         
   LPAW   =        T    paw PP                                                                      
   EAUG   =  605.392                                                                                
   DEXC   =    0.000                                                                                
   RMAX   =    1.553    core radius for proj-oper                                                   
   RAUG   =    1.300    factor for augmentation sphere                                              
   RDEP   =    1.550    radius for radial grids                                                     
   RDEPT  =    1.329    core radius for aug-charge                                                  
                                                                                                    
   Atomic configuration                                                                             
    4 entries                                                                                       
     n  l   j            E        occ.                                                              
     1  0  0.50      -514.6923   2.0000                                                             
     2  0  0.50       -23.9615   2.0000                                                             
     2  1  0.50        -9.0305   4.0000                                                             
     3  2  1.50        -9.5241   0.0000                                                             
   Description                                                                                      
     l       E           TYP  RCUT    TYP  RCUT                                                     
     0    -23.9615318     23  1.200                                                                 
     0     -9.5240782     23  1.200                                                                 
     1     -9.0304911     23  1.520                                                                 
     1      8.1634956     23  1.520                                                                 
     2     -9.5240782      7  1.500                                                                 
  local pseudopotential read in
  partial core-charges read in
  partial kinetic energy density read in
  kinetic energy density of atom read in
  atomic valenz-charges read in
  non local Contribution for L=           0  read in
    real space projection operators read in
  non local Contribution for L=           0  read in
    real space projection operators read in
  non local Contribution for L=           1  read in
    real space projection operators read in
  non local Contribution for L=           1  read in
    real space projection operators read in
    PAW grid and wavefunctions read in

   number of l-projection  operators is LMAX  =           4
   number of lm-projection operators is LMMAX =           8

 Optimization of the real space projectors (new method)

 maximal supplied QI-value         = 19.84
 optimisation between [QCUT,QGAM] = [ 10.12, 20.44] = [ 28.68,116.96] Ry 
 Optimized for a Real-space Cutoff    1.23 Angstroem

   l    n(q)    QCUT    max X(q) W(low)/X(q) W(high)/X(q)  e(spline) 
   0      7    10.119   176.870    0.49E-04    0.18E-03    0.39E-07
   0      7    10.119   105.762    0.46E-04    0.18E-03    0.38E-07
   1      7    10.119    55.370    0.30E-03    0.37E-03    0.12E-06
   1      7    10.119    20.208    0.27E-03    0.35E-03    0.11E-06
 Optimization of the real space projectors (new method)

 maximal supplied QI-value         = 24.76
 optimisation between [QCUT,QGAM] = [ 10.15, 20.30] = [ 28.85,115.39] Ry 
 Optimized for a Real-space Cutoff    1.38 Angstroem

   l    n(q)    QCUT    max X(q) W(low)/X(q) W(high)/X(q)  e(spline) 
   0      8    10.150    20.381    0.22E-03    0.32E-03    0.29E-06
   0      8    10.150    15.268    0.23E-03    0.35E-03    0.30E-06
   1      8    10.150     5.964    0.46E-03    0.53E-03    0.21E-06
   1      8    10.150     5.382    0.38E-03    0.45E-03    0.19E-06
  PAW_PBE Al 04Jan2001                  :
 energy of atom  1       EATOM=  -53.5387
 kinetic energy error for atom=    0.0005 (will be added to EATOM!!)
  PAW_PBE O 08Apr2002                   :
 energy of atom  2       EATOM= -432.3788
 kinetic energy error for atom=    0.1156 (will be added to EATOM!!)


 POSCAR:    Al  O
  positions in direct lattice
  No initial velocities read in
 exchange correlation table for  LEXCH =        8
   RHO(1)=    0.500       N(1)  =     2000
   RHO(2)=  100.500       N(2)  =     4000



--------------------------------------------------------------------------------------------------------


 ion  position               nearest neighbor table
   1  0.126  0.016  0.390-  70 1.83  52 1.86  46 1.89  77 1.93  37 1.94  33 1.99   5 2.63  18 2.83
                            20 2.86  31 3.07  29 3.07  10 3.13   9 3.13   6 3.15
   2  0.126  0.516  0.390-  69 1.83  51 1.86  45 1.89  78 1.93  38 1.94  34 1.99   6 2.63  17 2.83
                            19 2.86  32 3.07  30 3.07   9 3.13  10 3.13   5 3.15
   3  0.626  0.016  0.390-  72 1.83  50 1.86  48 1.89  79 1.93  39 1.94  35 1.99   7 2.63  20 2.83
                            18 2.86  29 3.07  31 3.07  12 3.13  11 3.13   8 3.15
   4  0.626  0.516  0.390-  71 1.83  49 1.86  47 1.89  80 1.93  40 1.94  36 1.99   8 2.63  19 2.83
                            17 2.86  30 3.07  32 3.07  11 3.13  12 3.13   7 3.15
   5  0.126  0.234  0.610-  69 1.83  55 1.86  41 1.89  77 1.93  33 1.94  37 1.99   1 2.63  21 2.83
                            23 2.86  27 3.07  25 3.07  13 3.13  14 3.13   2 3.15
   6  0.126  0.734  0.610-  70 1.83  56 1.86  42 1.89  78 1.93  34 1.94  38 1.99   2 2.63  22 2.83
                            24 2.86  28 3.07  26 3.07  14 3.13  13 3.13   1 3.15
   7  0.626  0.234  0.610-  71 1.83  53 1.86  43 1.89  79 1.93  35 1.94  39 1.99   3 2.63  23 2.83
                            21 2.86  25 3.07  27 3.07  15 3.13  16 3.13   4 3.15
   8  0.626  0.734  0.610-  72 1.83  54 1.86  44 1.89  80 1.93  36 1.94  40 1.99   4 2.63  24 2.83
                            22 2.86  26 3.07  28 3.07  16 3.13  15 3.13   3 3.15
   9  0.124  0.266  0.110-  65 1.83  57 1.86  37 1.89  75 1.93  45 1.94  41 1.99  13 2.63  27 2.83
                            25 2.86  21 3.07  23 3.07   2 3.13   1 3.13  14 3.15
  10  0.124  0.766  0.110-  66 1.83  58 1.86  38 1.89  76 1.93  46 1.94  42 1.99  14 2.63  28 2.83
                            26 2.86  22 3.07  24 3.07   1 3.13   2 3.13  13 3.15
  11  0.624  0.266  0.110-  67 1.83  59 1.86  39 1.89  73 1.93  47 1.94  43 1.99  15 2.63  25 2.83
                            27 2.86  23 3.07  21 3.07   4 3.13   3 3.13  16 3.15
  12  0.624  0.766  0.110-  68 1.83  60 1.86  40 1.89  74 1.93  48 1.94  44 1.99  16 2.63  26 2.83
                            28 2.86  24 3.07  22 3.07   3 3.13   4 3.13  15 3.15
  13  0.124  0.484  0.890-  66 1.83  62 1.86  34 1.89  75 1.93  41 1.94  45 1.99   9 2.63  32 2.83
                            30 2.86  17 3.07  19 3.07   5 3.13   6 3.13  10 3.15
  14  0.124  0.984  0.890-  65 1.83  61 1.86  33 1.89  76 1.93  42 1.94  46 1.99  10 2.63  31 2.83
                            29 2.86  18 3.07  20 3.07   6 3.13   5 3.13   9 3.15
  15  0.624  0.484  0.890-  68 1.83  64 1.86  36 1.89  73 1.93  43 1.94  47 1.99  11 2.63  30 2.83
                            32 2.86  19 3.07  17 3.07   7 3.13   8 3.13  12 3.15
  16  0.624  0.984  0.890-  67 1.83  63 1.86  35 1.89  74 1.93  44 1.94  48 1.99  12 2.63  29 2.83
                            31 2.86  20 3.07  18 3.07   8 3.13   7 3.13  11 3.15
  17  0.374  0.484  0.610-  78 1.83  36 1.86  62 1.89  69 1.93  53 1.94  49 1.99  21 2.63   2 2.83
                             4 2.86  13 3.07  15 3.07  25 3.13  26 3.13  22 3.15
  18  0.374  0.984  0.610-  77 1.83  35 1.86  61 1.89  70 1.93  54 1.94  50 1.99  22 2.63   1 2.83
                             3 2.86  14 3.07  16 3.07  26 3.13  25 3.13  21 3.15
  19  0.874  0.484  0.610-  80 1.83  34 1.86  64 1.89  71 1.93  55 1.94  51 1.99  23 2.63   4 2.83
                             2 2.86  15 3.07  13 3.07  27 3.13  28 3.13  24 3.15
  20  0.874  0.984  0.610-  79 1.83  33 1.86  63 1.89  72 1.93  56 1.94  52 1.99  24 2.63   3 2.83
                             1 2.86  16 3.07  14 3.07  28 3.13  27 3.13  23 3.15
  21  0.374  0.266  0.390-  77 1.83  39 1.86  57 1.89  69 1.93  49 1.94  53 1.99  17 2.63   5 2.83
                             7 2.86   9 3.07  11 3.07  30 3.13  29 3.13  18 3.15
  22  0.374  0.766  0.390-  78 1.83  40 1.86  58 1.89  70 1.93  50 1.94  54 1.99  18 2.63   6 2.83
                             8 2.86  10 3.07  12 3.07  29 3.13  30 3.13  17 3.15
  23  0.874  0.266  0.390-  79 1.83  37 1.86  59 1.89  71 1.93  51 1.94  55 1.99  19 2.63   7 2.83
                             5 2.86  11 3.07   9 3.07  32 3.13  31 3.13  20 3.15
  24  0.874  0.766  0.390-  80 1.83  38 1.86  60 1.89  72 1.93  52 1.94  56 1.99  20 2.63   8 2.83
                             6 2.86  12 3.07  10 3.07  31 3.13  32 3.13  19 3.15
  25  0.376  0.234  0.890-  73 1.83  41 1.86  53 1.89  67 1.93  61 1.94  57 1.99  29 2.63  11 2.83
                             9 2.86   7 3.07   5 3.07  17 3.13  18 3.13  30 3.15
  26  0.376  0.734  0.890-  74 1.83  42 1.86  54 1.89  68 1.93  62 1.94  58 1.99  30 2.63  12 2.83
                            10 2.86   8 3.07   6 3.07  18 3.13  17 3.13  29 3.15
  27  0.876  0.234  0.890-  75 1.83  43 1.86  55 1.89  65 1.93  63 1.94  59 1.99  31 2.63   9 2.83
                            11 2.86   5 3.07   7 3.07  19 3.13  20 3.13  32 3.15
  28  0.876  0.734  0.890-  76 1.83  44 1.86  56 1.89  66 1.93  64 1.94  60 1.99  32 2.63  10 2.83
                            12 2.86   6 3.07   8 3.07  20 3.13  19 3.13  31 3.15
  29  0.376  0.016  0.110-  74 1.83  46 1.86  50 1.89  67 1.93  57 1.94  61 1.99  25 2.63  16 2.83
                            14 2.86   3 3.07   1 3.07  22 3.13  21 3.13  26 3.15
  30  0.376  0.516  0.110-  73 1.83  45 1.86  49 1.89  68 1.93  58 1.94  62 1.99  26 2.63  15 2.83
                            13 2.86   4 3.07   2 3.07  22 3.13  21 3.13  25 3.15
  31  0.876  0.016  0.110-  76 1.83  48 1.86  52 1.89  65 1.93  59 1.94  63 1.99  27 2.63  14 2.83
                            16 2.86   1 3.07   3 3.07  24 3.13  23 3.13  28 3.15
  32  0.876  0.516  0.110-  75 1.83  47 1.86  51 1.89  66 1.93  60 1.94  64 1.99  28 2.63  13 2.83
                            15 2.86   2 3.07   4 3.07  24 3.13  23 3.13  27 3.15
  33  0.054  0.051  0.654-  20 1.86  14 1.89   5 1.94   1 1.99
  34  0.054  0.551  0.654-  19 1.86  13 1.89   6 1.94   2 1.99
  35  0.554  0.051  0.654-  18 1.86  16 1.89   7 1.94   3 1.99
  36  0.554  0.551  0.654-  17 1.86  15 1.89   8 1.94   4 1.99
  37  0.054  0.199  0.346-  23 1.86   9 1.89   1 1.94   5 1.99
  38  0.054  0.699  0.346-  24 1.86  10 1.89   2 1.94   6 1.99
  39  0.554  0.199  0.346-  21 1.86  11 1.89   3 1.94   7 1.99
  40  0.554  0.699  0.346-  22 1.86  12 1.89   4 1.94   8 1.99
  41  0.196  0.301  0.846-  25 1.86   5 1.89  13 1.94   9 1.99
  42  0.196  0.801  0.846-  26 1.86   6 1.89  14 1.94  10 1.99
  43  0.696  0.301  0.846-  27 1.86   7 1.89  15 1.94  11 1.99
  44  0.696  0.801  0.846-  28 1.86   8 1.89  16 1.94  12 1.99
  45  0.196  0.449  0.154-  30 1.86   2 1.89   9 1.94  13 1.99
  46  0.196  0.949  0.154-  29 1.86   1 1.89  10 1.94  14 1.99
  47  0.696  0.449  0.154-  32 1.86   4 1.89  11 1.94  15 1.99
  48  0.696  0.949  0.154-  31 1.86   3 1.89  12 1.94  16 1.99
  49  0.446  0.449  0.346-   4 1.86  30 1.89  21 1.94  17 1.99
  50  0.446  0.949  0.346-   3 1.86  29 1.89  22 1.94  18 1.99
  51  0.946  0.449  0.346-   2 1.86  32 1.89  23 1.94  19 1.99
  52  0.946  0.949  0.346-   1 1.86  31 1.89  24 1.94  20 1.99
  53  0.446  0.301  0.654-   7 1.86  25 1.89  17 1.94  21 1.99
  54  0.446  0.801  0.654-   8 1.86  26 1.89  18 1.94  22 1.99
  55  0.946  0.301  0.654-   5 1.86  27 1.89  19 1.94  23 1.99
  56  0.946  0.801  0.654-   6 1.86  28 1.89  20 1.94  24 1.99
  57  0.304  0.199  0.154-   9 1.86  21 1.89  29 1.94  25 1.99
  58  0.304  0.699  0.154-  10 1.86  22 1.89  30 1.94  26 1.99
  59  0.804  0.199  0.154-  11 1.86  23 1.89  31 1.94  27 1.99
  60  0.804  0.699  0.154-  12 1.86  24 1.89  32 1.94  28 1.99
  61  0.304  0.051  0.846-  14 1.86  18 1.89  25 1.94  29 1.99
  62  0.304  0.551  0.846-  13 1.86  17 1.89  26 1.94  30 1.99
  63  0.804  0.051  0.846-  16 1.86  20 1.89  27 1.94  31 1.99
  64  0.804  0.551  0.846-  15 1.86  19 1.89  28 1.94  32 1.99
  65  0.025  0.125  0.000-  14 1.83   9 1.83  27 1.93  31 1.93
  66  0.025  0.625  0.000-  13 1.83  10 1.83  28 1.93  32 1.93
  67  0.525  0.125  0.000-  16 1.83  11 1.83  25 1.93  29 1.93
  68  0.525  0.625  0.000-  15 1.83  12 1.83  26 1.93  30 1.93
  69  0.225  0.375  0.500-   5 1.83   2 1.83  17 1.93  21 1.93
  70  0.225  0.875  0.500-   6 1.83   1 1.83  18 1.93  22 1.93
  71  0.725  0.375  0.500-   7 1.83   4 1.83  19 1.93  23 1.93
  72  0.725  0.875  0.500-   8 1.83   3 1.83  20 1.93  24 1.93
  73  0.475  0.375  0.000-  25 1.83  30 1.83  15 1.93  11 1.93
  74  0.475  0.875  0.000-  29 1.83  26 1.83  16 1.93  12 1.93
  75  0.975  0.375  0.000-  27 1.83  32 1.83  13 1.93   9 1.93
  76  0.975  0.875  0.000-  31 1.83  28 1.83  14 1.93  10 1.93
  77  0.275  0.125  0.500-  18 1.83  21 1.83   5 1.93   1 1.93
  78  0.275  0.625  0.500-  17 1.83  22 1.83   6 1.93   2 1.93
  79  0.775  0.125  0.500-  20 1.83  23 1.83   7 1.93   3 1.93
  80  0.775  0.625  0.500-  19 1.83  24 1.83   8 1.93   4 1.93

  LATTYP: Found a simple orthorhombic cell.
 ALAT       =     6.9527495781
 B/A-ratio  =     1.3681458986
 C/A-ratio  =     1.4070268484
  
  Lattice vectors:
  
 A1 = (   0.0000000000,   0.0000000000,   6.9527495781)
 A2 = (   9.5123758192,   0.0000000000,   0.0000000000)
 A3 = (   0.0000000000,   9.7827053268,   0.0000000000)


Analysis of symmetry for initial positions (statically):
=====================================================================
 Subroutine PRICEL returns following result:
 
  LATTYP: Found a simple orthorhombic cell.
 ALAT       =     4.7561879098
 B/A-ratio  =     1.0284187391
 C/A-ratio  =     1.4618323981
  
  Lattice vectors:
  
 A1 = (   4.7561879098,   0.0000000000,   0.0000000000)
 A2 = (   0.0000000000,   4.8913527730,   0.0000000000)
 A3 = (   0.0000000000,   0.0000000000,   6.9527495781)
 
   4 primitive cells build up your supercell.
 

 Routine SETGRP: Setting up the symmetry group for a 
 simple orthorhombic supercell.


 Subroutine GETGRP returns: Found  8 space group operations
 (whereof  2 operations were pure point group operations)
 out of a pool of  8 trial point group operations.


The static configuration has the point symmetry S_2 .
 The point group associated with its full space group is D_2h.


Analysis of symmetry for dynamics (positions and initial velocities):
=====================================================================
 Subroutine PRICEL returns following result:
 
  LATTYP: Found a simple orthorhombic cell.
 ALAT       =     4.7561879098
 B/A-ratio  =     1.0284187391
 C/A-ratio  =     1.4618323981
  
  Lattice vectors:
  
 A1 = (   4.7561879098,   0.0000000000,   0.0000000000)
 A2 = (   0.0000000000,   4.8913527730,   0.0000000000)
 A3 = (   0.0000000000,   0.0000000000,   6.9527495781)
 
   4 primitive cells build up your supercell.
 

 Routine SETGRP: Setting up the symmetry group for a 
 simple orthorhombic supercell.


 Subroutine GETGRP returns: Found  8 space group operations
 (whereof  2 operations were pure point group operations)
 out of a pool of  8 trial point group operations.


The dynamic configuration has the point symmetry S_2 .
 The point group associated with its full space group is D_2h.


Analysis of constrained symmetry for selective dynamics:
=====================================================================
 Subroutine PRICEL returns following result:
 
  LATTYP: Found a simple orthorhombic cell.
 ALAT       =     4.7561879098
 B/A-ratio  =     1.0284187391
 C/A-ratio  =     1.4618323981
  
  Lattice vectors:
  
 A1 = (   4.7561879098,   0.0000000000,   0.0000000000)
 A2 = (   0.0000000000,   4.8913527730,   0.0000000000)
 A3 = (   0.0000000000,   0.0000000000,   6.9527495781)
 
   4 primitive cells build up your supercell.
 

 Routine SETGRP: Setting up the symmetry group for a 
 simple orthorhombic supercell.


 Subroutine GETGRP returns: Found  8 space group operations
 (whereof  2 operations were pure point group operations)
 out of a pool of  8 trial point group operations.


The constrained configuration has the point symmetry S_2 .
 The point group associated with its full space group is D_2h.


 Subroutine INISYM returns: Found  8 space group operations
 (whereof  2 operations are pure point group operations),
 and found     4 'primitive' translations


----------------------------------------------------------------------------------------

                                     Primitive cell                                     

  volume of cell :     161.7501

  direct lattice vectors                    reciprocal lattice vectors
     4.756187910  0.000000000  0.000000000     0.210252416  0.000000000  0.000000000
     0.000000000  4.891352773  0.000000000     0.000000000  0.204442420  0.000000000
     0.000000000  0.000000000  6.952749578     0.000000000  0.000000000  0.143827990

  length of vectors
     4.756187910  4.891352773  6.952749578     0.210252416  0.204442420  0.143827990

  position of ions in fractional coordinates (direct lattice)
     0.252301010  0.031394432  0.389988368
     0.252301010  0.468605564  0.610011602
     0.247698990  0.531394421  0.110011610
     0.247698990  0.968605501  0.889988398
     0.747698961  0.968605501  0.610011602
     0.747698961  0.531394421  0.389988368
     0.752301039  0.468605564  0.889988398
     0.752301039  0.031394432  0.110011610
     0.107072531  0.102390997  0.654148561
     0.107072531  0.397608992  0.345851469
     0.392927454  0.602391023  0.845851439
     0.392927454  0.897608899  0.154148517
     0.892927514  0.897608899  0.345851469
     0.892927514  0.602391023  0.654148561
     0.607072486  0.397608992  0.154148517
     0.607072486  0.102390997  0.845851439
     0.050188047  0.249999994  0.000000000
     0.449811960  0.749999961  0.500000000
     0.949811900  0.749999961  0.000000000
     0.550188099  0.249999994  0.500000000

  ion indices of the primitive-cell ions
   primitive index   ion index
                 1           1
                 2           5
                 3          10
                 4          14
                 5          18
                 6          22
                 7          27
                 8          31
                 9          33
                10          37
                11          42
                12          46
                13          52
                14          56
                15          57
                16          61
                17          65
                18          70
                19          76
                20          77

----------------------------------------------------------------------------------------



 KPOINTS: k-points                                

Automatic generation of k-mesh.
 Grid dimensions read from file:
 generate k-points for:    4    4    4

 Generating k-lattice:

  Cartesian coordinates                     Fractional coordinates (reciprocal lattice)
     0.026281552  0.000000000  0.000000000     0.250000000  0.000000000  0.000000000
     0.000000000  0.025555303  0.000000000     0.000000000  0.250000000  0.000000000
     0.000000000  0.000000000  0.035956998     0.000000000  0.000000000  0.250000000

  Length of vectors
     0.026281552  0.025555303  0.035956998

  Shift w.r.t. Gamma in fractional coordinates (k-lattice)
     0.500000000  0.500000000  0.500000000

 
 Subroutine IBZKPT returns following result:
 ===========================================
 
 Found      8 irreducible k-points:
 
 Following reciprocal coordinates:
            Coordinates               Weight
  0.125000  0.125000  0.125000      8.000000
  0.375000  0.125000  0.125000      8.000000
  0.125000  0.375000  0.125000      8.000000
  0.375000  0.375000  0.125000      8.000000
  0.125000  0.125000  0.375000      8.000000
  0.375000  0.125000  0.375000      8.000000
  0.125000  0.375000  0.375000      8.000000
  0.375000  0.375000  0.375000      8.000000
 
 Following cartesian coordinates:
            Coordinates               Weight
  0.013141  0.012778  0.017978      8.000000
  0.039422  0.012778  0.017978      8.000000
  0.013141  0.038333  0.017978      8.000000
  0.039422  0.038333  0.017978      8.000000
  0.013141  0.012778  0.053935      8.000000
  0.039422  0.012778  0.053935      8.000000
  0.013141  0.038333  0.053935      8.000000
  0.039422  0.038333  0.053935      8.000000
 


--------------------------------------------------------------------------------------------------------




 Dimension of arrays:
   k-points           NKPTS =      8   k-points in BZ     NKDIM =      8   number of bands    NBANDS=    233
   number of dos      NEDOS =    301   number of ions     NIONS =     80
   non local maximal  LDIM  =      4   non local SUM 2l+1 LMDIM =      8
   total plane-waves  NPLWV =  82944
   max r-space proj   IRMAX =   1462   max aug-charges    IRDMAX=   5188
   dimension x,y,z NGX =    48 NGY =   48 NGZ =   36
   dimension x,y,z NGXF=    96 NGYF=   96 NGZF=   72
   support grid    NGXF=    96 NGYF=   96 NGZF=   72
   ions per type =              32  48
   NGX,Y,Z   is equivalent  to a cutoff of   8.39,  8.16,  8.61 a.u.
   NGXF,Y,Z  is equivalent  to a cutoff of  16.78, 16.31, 17.22 a.u.

 SYSTEM =  Alumina_orthorombic_cell_under_strain   
 POSCAR =     Al  O                                

 Startparameter for this run:
   NWRITE =      2    write-flag & timer
   PREC   = normal    normal or accurate (medium, high low for compatibility)
   ISTART =      0    job   : 0-new  1-cont  2-samecut
   ICHARG =      2    charge: 1-file 2-atom 10-const
   ISPIN  =      1    spin polarized calculation?
   LNONCOLLINEAR =      F non collinear calculations
   LSORBIT =      F    spin-orbit coupling
   INIWAV =      1    electr: 0-lowe 1-rand  2-diag
   LASPH  =      F    aspherical Exc in radial PAW
 Electronic Relaxation 1
   ENCUT  =  400.0 eV  29.40 Ry    5.42 a.u.  15.51 15.95 11.34*2*pi/ulx,y,z
   ENINI  =  400.0     initial cutoff
   ENAUG  =  605.4 eV  augmentation charge cutoff
   NELM   =    100;   NELMIN=  2; NELMDL= -5     # of ELM steps 
   EDIFF  = 0.1E-05   stopping-criterion for ELM
   LREAL  =      T    real-space projection
   NLSPLINE    = F    spline interpolate recip. space projectors
   LCOMPAT=      F    compatible to vasp.4.4
   GGA_COMPAT  = T    GGA compatible to vasp.4.4-vasp.4.6
   LMAXPAW     = -100 max onsite density
   LMAXMIX     =    2 max onsite mixed and CHGCAR
   VOSKOWN=      0    Vosko Wilk Nusair interpolation
   ROPT   =   -0.00050  -0.00050
 Ionic relaxation
   EDIFFG = -.1E-02   stopping-criterion for IOM
   NSW    =      0    number of steps for IOM
   NBLOCK =      1;   KBLOCK =      1    inner block; outer block 
   IBRION =     -1    ionic relax: 0-MD 1-quasi-New 2-CG
   NFREE  =      0    steps in history (QN), initial steepest desc. (CG)
   ISIF   =      2    stress and relaxation
   IWAVPR =     10    prediction:  0-non 1-charg 2-wave 3-comb
   ISYM   =      2    0-nonsym 1-usesym 2-fastsym
   LCORR  =      T    Harris-Foulkes like correction to forces

   POTIM  = 0.5000    time-step for ionic-motion
   TEIN   =    0.0    initial temperature
   TEBEG  =    0.0;   TEEND  =   0.0 temperature during run
   SMASS  =  -3.00    Nose mass-parameter (am)
   estimated Nose-frequenzy (Omega)   =  0.10E-29 period in steps = 0.13E+47 mass=  -0.207E-26a.u.
   SCALEE = 1.0000    scale energy and forces
   NPACO  =    256;   APACO  = 10.0  distance and # of slots for P.C.
   PSTRESS=    0.0 pullay stress

  Mass of Ions in am
   POMASS =  26.98 16.00
  Ionic Valenz
   ZVAL   =   3.00  6.00
  Atomic Wigner-Seitz radii
   RWIGS  =  -1.00 -1.00
  virtual crystal weights 
   VCA    =   1.00  1.00
   NELECT =     384.0000    total number of electrons
   NUPDOWN=      -1.0000    fix difference up-down

 DOS related values:
   EMIN   =  10.00;   EMAX   =-10.00  energy-range for DOS
   EFERMI =   0.00
   ISMEAR =     1;   SIGMA  =   0.03  broadening in eV -4-tet -1-fermi 0-gaus

 Electronic relaxation 2 (details)
   IALGO  =     38    algorithm
   LDIAG  =      T    sub-space diagonalisation (order eigenvalues)
   LSUBROT=      F    optimize rotation matrix (better conditioning)
   TURBO    =      0    0=normal 1=particle mesh
   IRESTART =      0    0=no restart 2=restart with 2 vectors
   NREBOOT  =      0    no. of reboots
   NMIN     =      0    reboot dimension
   EREF     =   0.00    reference energy to select bands
   IMIX   =      4    mixing-type and parameters
     AMIX     =   0.40;   BMIX     =  1.00
     AMIX_MAG =   1.60;   BMIX_MAG =  1.00
     AMIN     =   0.10
     WC   =   100.;   INIMIX=   1;  MIXPRE=   1;  MAXMIX= -45

 Intra band minimization:
   WEIMIN = 0.0000     energy-eigenvalue tresh-hold
   EBREAK =  0.11E-08  absolut break condition
   DEPER  =   0.30     relativ break condition  

   TIME   =   0.40     timestep for ELM

  volume/ion in A,a.u.               =       8.09        54.58
  Fermi-wavevector in a.u.,A,eV,Ry     =   1.375784  2.599856 25.752873  1.892783
  Thomas-Fermi vector in A             =   2.501089

 Write flags
   LWAVE        =      T    write WAVECAR
   LDOWNSAMPLE  =      F    k-point downsampling of WAVECAR
   LCHARG       =      T    write CHGCAR
   LVTOT        =      F    write LOCPOT, total local potential
   LVHAR        =      F    write LOCPOT, Hartree potential only
   LELF         =      F    write electronic localiz. function (ELF)
   LORBIT       =      0    0 simple, 1 ext, 2 COOP (PROOUT), +10 PAW based schemes


 Dipole corrections
   LMONO  =      F    monopole corrections only (constant potential shift)
   LDIPOL =      F    correct potential (dipole corrections)
   IDIPOL =      0    1-x, 2-y, 3-z, 4-all directions 
   EPSILON=  1.0000000 bulk dielectric constant

 Exchange correlation treatment:
   GGA     =    --    GGA type
   LEXCH   =     8    internal setting for exchange type
   LIBXC   =     F    Libxc                    
   VOSKOWN =     0    Vosko Wilk Nusair interpolation
   LHFCALC =     F    Hartree Fock is set to
   LHFONE  =     F    Hartree Fock one center treatment
   AEXX    =    0.0000 exact exchange contribution

 Linear response parameters
   LEPSILON=     F    determine dielectric tensor
   LRPA    =     F    only Hartree local field effects (RPA)
   LNABLA  =     F    use nabla operator in PAW spheres
   LVEL    =     F    velocity operator in full k-point grid
   CSHIFT  =0.1000    complex shift for real part using Kramers Kronig
   OMEGAMAX=  -1.0    maximum frequency
   DEG_THRESHOLD= 0.2000000E-02 threshold for treating states as degnerate
   RTIME   =   -0.100 relaxation time in fs
  (WPLASMAI=    0.000 imaginary part of plasma frequency in eV, 0.658/RTIME)
   DFIELD  = 0.0000000 0.0000000 0.0000000 field for delta impulse in time

  Optional k-point grid parameters
   LKPOINTS_OPT  =     F    use optional k-point grid
   KPOINTS_OPT_MODE=     1    mode for optional k-point grid

 Orbital magnetization related:
   ORBITALMAG=     F  switch on orbital magnetization
   LCHIMAG   =     F  perturbation theory with respect to B field
   DQ        =  0.001000  dq finite difference perturbation B field
   LLRAUG    =     F  two centre corrections for induced B field



--------------------------------------------------------------------------------------------------------


 Static calculation
 charge density and potential will be updated during run
 non-spin polarized calculation
 Variant of blocked Davidson
 Davidson routine will perform the subspace rotation
 perform sub-space diagonalisation
    after iterative eigenvector-optimisation
 modified Broyden-mixing scheme, WC =      100.0
 initial mixing is a Kerker type mixing with AMIX =  0.4000 and BMIX =      1.0000
 Hartree-type preconditioning will be used
 using additional bands           41
 real space projection scheme for non local part
 use partial core corrections
 calculate Harris-corrections to forces   (improved forces if not selfconsistent)
 use gradient corrections 
 use of overlap-Matrix (Vanderbilt PP)
 Methfessel and Paxton  Order N= 1 SIGMA  =   0.03


--------------------------------------------------------------------------------------------------------


  energy-cutoff  :      400.00
  volume of cell :      647.00
      direct lattice vectors                 reciprocal lattice vectors
     9.512375819  0.000000000  0.000000000     0.105126208  0.000000000  0.000000000
     0.000000000  9.782705327  0.000000000     0.000000000  0.102221212  0.000000000
     0.000000000  0.000000000  6.952749578     0.000000000  0.000000000  0.143827990

  length of vectors
     9.512375819  9.782705327  6.952749578     0.105126208  0.102221212  0.143827990



 k-points in units of 2pi/SCALE and weight: k-points                                
   0.01314078  0.01277765  0.01797850       0.125
   0.03942233  0.01277765  0.01797850       0.125
   0.01314078  0.03833295  0.01797850       0.125
   0.03942233  0.03833295  0.01797850       0.125
   0.01314078  0.01277765  0.05393550       0.125
   0.03942233  0.01277765  0.05393550       0.125
   0.01314078  0.03833295  0.05393550       0.125
   0.03942233  0.03833295  0.05393550       0.125

 k-points in reciprocal lattice and weights: k-points                                
   0.12500000  0.12500000  0.12500000       0.125
   0.37500000  0.12500000  0.12500000       0.125
   0.12500000  0.37500000  0.12500000       0.125
   0.37500000  0.37500000  0.12500000       0.125
   0.12500000  0.12500000  0.37500000       0.125
   0.37500000  0.12500000  0.37500000       0.125
   0.12500000  0.37500000  0.37500000       0.125
   0.37500000  0.37500000  0.37500000       0.125

 position of ions in fractional coordinates (direct lattice) 
   0.12615050  0.01569722  0.38998837
   0.12615050  0.51569723  0.38998837
   0.62615052  0.01569722  0.38998837
   0.62615052  0.51569723  0.38998837
   0.12615050  0.23430279  0.61001160
   0.12615050  0.73430277  0.61001160
   0.62615052  0.23430279  0.61001160
   0.62615052  0.73430277  0.61001160
   0.12384950  0.26569723  0.11001161
   0.12384950  0.76569723  0.11001161
   0.62384948  0.26569723  0.11001161
   0.62384948  0.76569723  0.11001161
   0.12384950  0.48430277  0.88998840
   0.12384950  0.98430277  0.88998840
   0.62384948  0.48430277  0.88998840
   0.62384948  0.98430277  0.88998840
   0.37384948  0.48430277  0.61001160
   0.37384948  0.98430277  0.61001160
   0.87384948  0.48430277  0.61001160
   0.87384948  0.98430277  0.61001160
   0.37384948  0.26569723  0.38998837
   0.37384948  0.76569723  0.38998837
   0.87384948  0.26569723  0.38998837
   0.87384948  0.76569723  0.38998837
   0.37615052  0.23430279  0.88998840
   0.37615052  0.73430277  0.88998840
   0.87615052  0.23430279  0.88998840
   0.87615052  0.73430277  0.88998840
   0.37615052  0.01569722  0.11001161
   0.37615052  0.51569723  0.11001161
   0.87615052  0.01569722  0.11001161
   0.87615052  0.51569723  0.11001161
   0.05353627  0.05119550  0.65414856
   0.05353627  0.55119553  0.65414856
   0.55353624  0.05119550  0.65414856
   0.55353624  0.55119553  0.65414856
   0.05353627  0.19880450  0.34585147
   0.05353627  0.69880447  0.34585147
   0.55353624  0.19880450  0.34585147
   0.55353624  0.69880447  0.34585147
   0.19646373  0.30119550  0.84585144
   0.19646373  0.80119553  0.84585144
   0.69646370  0.30119550  0.84585144
   0.69646370  0.80119553  0.84585144
   0.19646373  0.44880450  0.15414852
   0.19646373  0.94880447  0.15414852
   0.69646370  0.44880450  0.15414852
   0.69646370  0.94880447  0.15414852
   0.44646376  0.44880450  0.34585147
   0.44646376  0.94880447  0.34585147
   0.94646376  0.44880450  0.34585147
   0.94646376  0.94880447  0.34585147
   0.44646376  0.30119550  0.65414856
   0.44646376  0.80119553  0.65414856
   0.94646376  0.30119550  0.65414856
   0.94646376  0.80119553  0.65414856
   0.30353624  0.19880450  0.15414852
   0.30353624  0.69880447  0.15414852
   0.80353624  0.19880450  0.15414852
   0.80353624  0.69880447  0.15414852
   0.30353624  0.05119550  0.84585144
   0.30353624  0.55119553  0.84585144
   0.80353624  0.05119550  0.84585144
   0.80353624  0.55119553  0.84585144
   0.02509402  0.12500000  0.00000000
   0.02509402  0.62500000  0.00000000
   0.52509405  0.12500000  0.00000000
   0.52509405  0.62500000  0.00000000
   0.22490598  0.37500000  0.50000000
   0.22490598  0.87500000  0.50000000
   0.72490601  0.37500000  0.50000000
   0.72490601  0.87500000  0.50000000
   0.47490595  0.37500000  0.00000000
   0.47490595  0.87500000  0.00000000
   0.97490595  0.37500000  0.00000000
   0.97490595  0.87500000  0.00000000
   0.27509405  0.12500000  0.50000000
   0.27509405  0.62500000  0.50000000
   0.77509405  0.12500000  0.50000000
   0.77509405  0.62500000  0.50000000

 position of ions in cartesian coordinates  (Angst):
   1.19999101  0.15356124  2.71149146
   1.19999101  5.04491402  2.71149146
   5.95617906  0.15356124  2.71149146
   5.95617906  5.04491402  2.71149146
   1.19999101  2.29211513  4.24125791
   1.19999101  7.18346764  4.24125791
   5.95617906  2.29211513  4.24125791
   5.95617906  7.18346764  4.24125791
   1.17810294  2.59923768  0.76488317
   1.17810294  7.49059035  0.76488317
   5.93429071  2.59923768  0.76488317
   5.93429071  7.49059035  0.76488317
   1.17810294  4.73779131  6.18786646
   1.17810294  9.62914398  6.18786646
   5.93429071  4.73779131  6.18786646
   5.93429071  9.62914398  6.18786646
   3.55619676  4.73779131  4.24125791
   3.55619676  9.62914398  4.24125791
   8.31238467  4.73779131  4.24125791
   8.31238467  9.62914398  4.24125791
   3.55619676  2.59923768  2.71149146
   3.55619676  7.49059035  2.71149146
   8.31238467  2.59923768  2.71149146
   8.31238467  7.49059035  2.71149146
   3.57808511  2.29211513  6.18786646
   3.57808511  7.18346764  6.18786646
   8.33427302  2.29211513  6.18786646
   8.33427302  7.18346764  6.18786646
   3.57808511  0.15356124  0.76488317
   3.57808511  5.04491402  0.76488317
   8.33427302  0.15356124  0.76488317
   8.33427302  5.04491402  0.76488317
   0.50925708  0.50083049  4.54813113
   0.50925708  5.39218344  4.54813113
   5.26544477  0.50083049  4.54813113
   5.26544477  5.39218344  4.54813113
   0.50925708  1.94484585  2.40461865
   0.50925708  6.83619822  2.40461865
   5.26544477  1.94484585  2.40461865
   5.26544477  6.83619822  2.40461865
   1.86883681  2.94650682  5.88099323
   1.86883681  7.83785977  5.88099323
   6.62502443  2.94650682  5.88099323
   6.62502443  7.83785977  5.88099323
   1.86883681  4.39052218  1.07175603
   1.86883681  9.28187455  1.07175603
   6.62502443  4.39052218  1.07175603
   6.62502443  9.28187455  1.07175603
   4.24693105  4.39052218  2.40461865
   4.24693105  9.28187455  2.40461865
   9.00311896  4.39052218  2.40461865
   9.00311896  9.28187455  2.40461865
   4.24693105  2.94650682  4.54813113
   4.24693105  7.83785977  4.54813113
   9.00311896  2.94650682  4.54813113
   9.00311896  7.83785977  4.54813113
   2.88735082  1.94484585  1.07175603
   2.88735082  6.83619822  1.07175603
   7.64353873  1.94484585  1.07175603
   7.64353873  6.83619822  1.07175603
   2.88735082  0.50083049  5.88099323
   2.88735082  5.39218344  5.88099323
   7.64353873  0.50083049  5.88099323
   7.64353873  5.39218344  5.88099323
   0.23870378  1.22283817  0.00000000
   0.23870378  6.11419083  0.00000000
   4.99489194  1.22283817  0.00000000
   4.99489194  6.11419083  0.00000000
   2.13939021  3.66851450  3.47637479
   2.13939021  8.55986716  3.47637479
   6.89557840  3.66851450  3.47637479
   6.89557840  8.55986716  3.47637479
   4.51748388  3.66851450  0.00000000
   4.51748388  8.55986716  0.00000000
   9.27367179  3.66851450  0.00000000
   9.27367179  8.55986716  0.00000000
   2.61679799  1.22283817  3.47637479
   2.61679799  6.11419083  3.47637479
   7.37298590  1.22283817  3.47637479
   7.37298590  6.11419083  3.47637479



--------------------------------------------------------------------------------------------------------


 k-point   1 :   0.1250 0.1250 0.1250  plane waves:   11760
 k-point   2 :   0.3750 0.1250 0.1250  plane waves:   11769
 k-point   3 :   0.1250 0.3750 0.1250  plane waves:   11771
 k-point   4 :   0.3750 0.3750 0.1250  plane waves:   11743
 k-point   5 :   0.1250 0.1250 0.3750  plane waves:   11754
 k-point   6 :   0.3750 0.1250 0.3750  plane waves:   11723
 k-point   7 :   0.1250 0.3750 0.3750  plane waves:   11750
 k-point   8 :   0.3750 0.3750 0.3750  plane waves:   11751

 maximum and minimum number of plane-waves per node :     11771    11723

 maximum number of plane-waves:     11771
 maximum index in each direction: 
   IXMAX=   15   IYMAX=   15   IZMAX=   11
   IXMIN=  -15   IYMIN=  -16   IZMIN=  -11


 serial   3D FFT for wavefunctions
 parallel 3D FFT for charge:
    minimum data exchange during FFTs selected (reduces bandwidth)


 total amount of memory used by VASP MPI-rank0   473580. kBytes
=======================================================================

   base      :      30000. kBytes
   nonlr-proj:       8724. kBytes
   fftplans  :      23216. kBytes
   grid      :      41250. kBytes
   one-center:        245. kBytes
   wavefun   :     370145. kBytes

     INWAV:  cpu time      0.0001: real time      0.0002
 Broyden mixing: mesh for mixing (old mesh)
   NGX = 31   NGY = 31   NGZ = 23
  (NGX  = 96   NGY  = 96   NGZ  = 72)
  gives a total of  22103 points

 initial charge density was supplied:
 charge density of overlapping atoms calculated
 number of electron     384.0000000 magnetization 
 keeping initial charge density in first step


--------------------------------------------------------------------------------------------------------


 Maximum index for non-local projection operator         1375
 Maximum index for augmentation-charges         4843 (set IRDMAX)


--------------------------------------------------------------------------------------------------------


 First call to EWALD:  gamma=   0.205
 Maximum number of real-space cells 3x 2x 3
 Maximum number of reciprocal cells 3x 3x 2

    FEWALD:  cpu time      0.0610: real time      0.0612


--------------------------------------- Iteration      1(   1)  ---------------------------------------


    POTLOK:  cpu time      0.3263: real time      0.3286
    SETDIJ:  cpu time      0.0802: real time      0.0806
     EDDAV:  cpu time     45.4315: real time     45.8877
       DOS:  cpu time      0.0025: real time      0.0027
    --------------------------------------------
      LOOP:  cpu time     45.8406: real time     46.2997

 eigenvalue-minimisations  :  3728
 total energy-change (2. order) : 0.1859869E+04  (-0.1778961E+05)
 number of electron     384.0000000 magnetization 
 augmentation part      384.0000000 magnetization 

 Free energy of the ion-electron system (eV)
  ---------------------------------------------------
  alpha Z        PSCENC =       638.50098632
  Ewald energy   TEWEN  =    -19682.46705803
  -Hartree energ DENC   =     -4847.15316382
  -exchange      EXHF   =         0.00000000
  -V(xc)+E(xc)   XCENC  =       539.87542732
  PAW double counting   =     18752.77991877   -17816.57094691
  entropy T*S    EENTRO =         0.00040508
  eigenvalues    EBANDS =      1813.04907844
  atomic energy  EATOM  =     22461.85434800
  Solvation  Ediel_sol  =         0.00000000
  ---------------------------------------------------
  free energy    TOTEN  =      1859.86899516 eV

  energy without entropy =     1859.86859008  energy(sigma->0) =     1859.86886013


--------------------------------------------------------------------------------------------------------




--------------------------------------- Iteration      1(   2)  ---------------------------------------


     EDDAV:  cpu time     52.5439: real time     53.1669
       DOS:  cpu time      0.0024: real time      0.0026
    --------------------------------------------
      LOOP:  cpu time     52.5463: real time     53.1695

 eigenvalue-minimisations  :  4384
 total energy-change (2. order) :-0.2393057E+04  (-0.2342841E+04)
 number of electron     384.0000000 magnetization 
 augmentation part      384.0000000 magnetization 

 Free energy of the ion-electron system (eV)
  ---------------------------------------------------
  alpha Z        PSCENC =       638.50098632
  Ewald energy   TEWEN  =    -19682.46705803
  -Hartree energ DENC   =     -4847.15316382
  -exchange      EXHF   =         0.00000000
  -V(xc)+E(xc)   XCENC  =       539.87542732
  PAW double counting   =     18752.77991877   -17816.57094691
  entropy T*S    EENTRO =         0.00018843
  eigenvalues    EBANDS =      -580.00741680
  atomic energy  EATOM  =     22461.85434800
  Solvation  Ediel_sol  =         0.00000000
  ---------------------------------------------------
  free energy    TOTEN  =      -533.18771673 eV

  energy without entropy =     -533.18790516  energy(sigma->0) =     -533.18777954


--------------------------------------------------------------------------------------------------------




--------------------------------------- Iteration      1(   3)  ---------------------------------------


     EDDAV:  cpu time     52.5287: real time     53.0704
       DOS:  cpu time      0.0024: real time      0.0026
    --------------------------------------------
      LOOP:  cpu time     52.5311: real time     53.0730

 eigenvalue-minimisations  :  4352
 total energy-change (2. order) :-0.1207380E+03  (-0.1202327E+03)
 number of electron     384.0000000 magnetization 
 augmentation part      384.0000000 magnetization 

 Free energy of the ion-electron system (eV)
  ---------------------------------------------------
  alpha Z        PSCENC =       638.50098632
  Ewald energy   TEWEN  =    -19682.46705803
  -Hartree energ DENC   =     -4847.15316382
  -exchange      EXHF   =         0.00000000
  -V(xc)+E(xc)   XCENC  =       539.87542732
  PAW double counting   =     18752.77991877   -17816.57094691
  entropy T*S    EENTRO =         0.00110357
  eigenvalues    EBANDS =      -700.74637096
  atomic energy  EATOM  =     22461.85434800
  Solvation  Ediel_sol  =         0.00000000
  ---------------------------------------------------
  free energy    TOTEN  =      -653.92575575 eV

  energy without entropy =     -653.92685932  energy(sigma->0) =     -653.92612360


--------------------------------------------------------------------------------------------------------




--------------------------------------- Iteration      1(   4)  ---------------------------------------


     EDDAV:  cpu time     52.0863: real time     52.6367
       DOS:  cpu time      0.0026: real time      0.0028
    --------------------------------------------
      LOOP:  cpu time     52.0889: real time     52.6395

 eigenvalue-minimisations  :  4336
 total energy-change (2. order) :-0.1371736E+01  (-0.1367274E+01)
 number of electron     384.0000000 magnetization 
 augmentation part      384.0000000 magnetization 

 Free energy of the ion-electron system (eV)
  ---------------------------------------------------
  alpha Z        PSCENC =       638.50098632
  Ewald energy   TEWEN  =    -19682.46705803
  -Hartree energ DENC   =     -4847.15316382
  -exchange      EXHF   =         0.00000000
  -V(xc)+E(xc)   XCENC  =       539.87542732
  PAW double counting   =     18752.77991877   -17816.57094691
  entropy T*S    EENTRO =         0.00120800
  eigenvalues    EBANDS =      -702.11821145
  atomic energy  EATOM  =     22461.85434800
  Solvation  Ediel_sol  =         0.00000000
  ---------------------------------------------------
  free energy    TOTEN  =      -655.29749182 eV

  energy without entropy =     -655.29869982  energy(sigma->0) =     -655.29789448


--------------------------------------------------------------------------------------------------------




--------------------------------------- Iteration      1(   5)  ---------------------------------------


     EDDAV:  cpu time     52.0912: real time     52.6308
       DOS:  cpu time      0.0026: real time      0.0028
    CHARGE:  cpu time      1.5657: real time      1.5803
    MIXING:  cpu time      0.0107: real time      0.0107
    --------------------------------------------
      LOOP:  cpu time     53.6702: real time     54.2246

 eigenvalue-minimisations  :  4336
 total energy-change (2. order) :-0.2563371E-01  (-0.2559657E-01)
 number of electron     384.0001685 magnetization 
 augmentation part       37.5043580 magnetization 

 Broyden mixing:
  rms(total) = 0.49530E+01    rms(broyden)= 0.49509E+01
  rms(prec ) = 0.65152E+01
  weight for this iteration     100.00

 Free energy of the ion-electron system (eV)
  ---------------------------------------------------
  alpha Z        PSCENC =       638.50098632
  Ewald energy   TEWEN  =    -19682.46705803
  -Hartree energ DENC   =     -4847.15316382
  -exchange      EXHF   =         0.00000000
  -V(xc)+E(xc)   XCENC  =       539.87542732
  PAW double counting   =     18752.77991877   -17816.57094691
  entropy T*S    EENTRO =         0.00121221
  eigenvalues    EBANDS =      -702.14384938
  atomic energy  EATOM  =     22461.85434800
  Solvation  Ediel_sol  =         0.00000000
  ---------------------------------------------------
  free energy    TOTEN  =      -655.32312553 eV

  energy without entropy =     -655.32433774  energy(sigma->0) =     -655.32352960


--------------------------------------------------------------------------------------------------------




--------------------------------------- Iteration      1(   6)  ---------------------------------------


    POTLOK:  cpu time      0.3350: real time      0.3378
    SETDIJ:  cpu time      0.0803: real time      0.0808
     EDDAV:  cpu time     50.1057: real time     50.6066
       DOS:  cpu time      0.0024: real time      0.0026
    CHARGE:  cpu time      1.4085: real time      1.4214
    MIXING:  cpu time      0.0112: real time      0.0113
    --------------------------------------------
      LOOP:  cpu time     51.9432: real time     52.4605

 eigenvalue-minimisations  :  4152
 total energy-change (2. order) : 0.6496369E+02  (-0.2733592E+02)
 number of electron     384.0001447 magnetization 
 augmentation part       31.9033760 magnetization 

 Broyden mixing:
  rms(total) = 0.17261E+01    rms(broyden)= 0.17233E+01
  rms(prec ) = 0.19257E+01
  weight for this iteration     100.00

 eigenvalues of (default mixing * dielectric matrix)
  average eigenvalue GAMMA=   0.9812
  0.9812

 Free energy of the ion-electron system (eV)
  ---------------------------------------------------
  alpha Z        PSCENC =       638.50098632
  Ewald energy   TEWEN  =    -19682.46705803
  -Hartree energ DENC   =     -5586.82410567
  -exchange      EXHF   =         0.00000000
  -V(xc)+E(xc)   XCENC  =       592.39197174
  PAW double counting   =     24459.93990387   -23538.40367156
  entropy T*S    EENTRO =         0.00060288
  eigenvalues    EBANDS =        64.64758299
  atomic energy  EATOM  =     22461.85434800
  Solvation  Ediel_sol  =         0.00000000
  ---------------------------------------------------
  free energy    TOTEN  =      -590.35943946 eV

  energy without entropy =     -590.36004234  energy(sigma->0) =     -590.35964042


--------------------------------------------------------------------------------------------------------




--------------------------------------- Iteration      1(   7)  ---------------------------------------


    POTLOK:  cpu time      0.3454: real time      0.3481
    SETDIJ:  cpu time      0.0806: real time      0.0811
     EDDAV:  cpu time     53.5703: real time     54.1454
       DOS:  cpu time      0.0022: real time      0.0024
    CHARGE:  cpu time      1.4028: real time      1.4158
    MIXING:  cpu time      0.0127: real time      0.0128
    --------------------------------------------
      LOOP:  cpu time     55.4139: real time     56.0055

 eigenvalue-minimisations  :  4512
 total energy-change (2. order) : 0.7995604E-01  (-0.6615999E+00)
 number of electron     384.0001438 magnetization 
 augmentation part       31.4556207 magnetization 

 Broyden mixing:
  rms(total) = 0.94594E+00    rms(broyden)= 0.94568E+00
  rms(prec ) = 0.10645E+01
  weight for this iteration     100.00

 eigenvalues of (default mixing * dielectric matrix)
  average eigenvalue GAMMA=   1.3211
  1.2312  1.4110

 Free energy of the ion-electron system (eV)
  ---------------------------------------------------
  alpha Z        PSCENC =       638.50098632
  Ewald energy   TEWEN  =    -19682.46705803
  -Hartree energ DENC   =     -5663.01436952
  -exchange      EXHF   =         0.00000000
  -V(xc)+E(xc)   XCENC  =       598.83584049
  PAW double counting   =     28941.83422736   -28020.08344813
  entropy T*S    EENTRO =         0.00054701
  eigenvalues    EBANDS =       134.25944307
  atomic energy  EATOM  =     22461.85434800
  Solvation  Ediel_sol  =         0.00000000
  ---------------------------------------------------
  free energy    TOTEN  =      -590.27948342 eV

  energy without entropy =     -590.28003044  energy(sigma->0) =     -590.27966576


--------------------------------------------------------------------------------------------------------




--------------------------------------- Iteration      1(   8)  ---------------------------------------


    POTLOK:  cpu time      0.3489: real time      0.3518
    SETDIJ:  cpu time      0.0803: real time      0.0808
     EDDAV:  cpu time     51.9799: real time     52.5254
       DOS:  cpu time      0.0024: real time      0.0026
    CHARGE:  cpu time      1.4072: real time      1.4201
    MIXING:  cpu time      0.0135: real time      0.0136
    --------------------------------------------
      LOOP:  cpu time     53.8323: real time     54.3942

 eigenvalue-minimisations  :  4336
 total energy-change (2. order) :-0.1764572E-01  (-0.4711684E-01)
 number of electron     384.0001442 magnetization 
 augmentation part       31.5627089 magnetization 

 Broyden mixing:
  rms(total) = 0.28819E+00    rms(broyden)= 0.28818E+00
  rms(prec ) = 0.34044E+00
  weight for this iteration     100.00

 eigenvalues of (default mixing * dielectric matrix)
  average eigenvalue GAMMA=   1.5678
  2.5374  1.0830  1.0830

 Free energy of the ion-electron system (eV)
  ---------------------------------------------------
  alpha Z        PSCENC =       638.50098632
  Ewald energy   TEWEN  =    -19682.46705803
  -Hartree energ DENC   =     -5682.66109206
  -exchange      EXHF   =         0.00000000
  -V(xc)+E(xc)   XCENC  =       601.63517335
  PAW double counting   =     32417.55449579   -31495.18781182
  entropy T*S    EENTRO =         0.00057024
  eigenvalues    EBANDS =       150.47325907
  atomic energy  EATOM  =     22461.85434800
  Solvation  Ediel_sol  =         0.00000000
  ---------------------------------------------------
  free energy    TOTEN  =      -590.29712915 eV

  energy without entropy =     -590.29769938  energy(sigma->0) =     -590.29731922


--------------------------------------------------------------------------------------------------------




--------------------------------------- Iteration      1(   9)  ---------------------------------------


    POTLOK:  cpu time      0.3648: real time      0.3677
    SETDIJ:  cpu time      0.0835: real time      0.0840
     EDDAV:  cpu time     51.4359: real time     52.0420
       DOS:  cpu time      0.0023: real time      0.0026
    CHARGE:  cpu time      1.4137: real time      1.4270
    MIXING:  cpu time      0.0140: real time      0.0141
    --------------------------------------------
      LOOP:  cpu time     53.3143: real time     53.9374

 eigenvalue-minimisations  :  4272
 total energy-change (2. order) :-0.4445895E-01  (-0.1612968E-01)
 number of electron     384.0001439 magnetization 
 augmentation part       31.4868828 magnetization 

 Broyden mixing:
  rms(total) = 0.71086E-01    rms(broyden)= 0.71062E-01
  rms(prec ) = 0.73794E-01
  weight for this iteration     100.00

 eigenvalues of (default mixing * dielectric matrix)
  average eigenvalue GAMMA=   1.7421
  1.0344  1.0344  2.4497  2.4497

 Free energy of the ion-electron system (eV)
  ---------------------------------------------------
  alpha Z        PSCENC =       638.50098632
  Ewald energy   TEWEN  =    -19682.46705803
  -Hartree energ DENC   =     -5712.91101939
  -exchange      EXHF   =         0.00000000
  -V(xc)+E(xc)   XCENC  =       604.63098364
  PAW double counting   =     33983.44681020   -33061.20059891
  entropy T*S    EENTRO =         0.00056848
  eigenvalues    EBANDS =       177.80339160
  atomic energy  EATOM  =     22461.85434800
  Solvation  Ediel_sol  =         0.00000000
  ---------------------------------------------------
  free energy    TOTEN  =      -590.34158809 eV

  energy without entropy =     -590.34215657  energy(sigma->0) =     -590.34177759


--------------------------------------------------------------------------------------------------------




--------------------------------------- Iteration      1(  10)  ---------------------------------------


    POTLOK:  cpu time      0.3617: real time      0.3645
    SETDIJ:  cpu time      0.0831: real time      0.0836
     EDDAV:  cpu time     51.9685: real time     52.5310
       DOS:  cpu time      0.0023: real time      0.0023
    CHARGE:  cpu time      1.4091: real time      1.4222
    MIXING:  cpu time      0.0140: real time      0.0141
    --------------------------------------------
      LOOP:  cpu time     53.8387: real time     54.4177

 eigenvalue-minimisations  :  4336
 total energy-change (2. order) :-0.6059026E-02  (-0.2790724E-02)
 number of electron     384.0001440 magnetization 
 augmentation part       31.4697191 magnetization 

 Broyden mixing:
  rms(total) = 0.31703E-01    rms(broyden)= 0.31675E-01
  rms(prec ) = 0.38411E-01
  weight for this iteration     100.00

 eigenvalues of (default mixing * dielectric matrix)
  average eigenvalue GAMMA=   1.5318
  2.6236  2.2898  1.0115  1.0115  0.7225

 Free energy of the ion-electron system (eV)
  ---------------------------------------------------
  alpha Z        PSCENC =       638.50098632
  Ewald energy   TEWEN  =    -19682.46705803
  -Hartree energ DENC   =     -5714.75338580
  -exchange      EXHF   =         0.00000000
  -V(xc)+E(xc)   XCENC  =       604.81953101
  PAW double counting   =     33525.30668562   -32603.10651395
  entropy T*S    EENTRO =         0.00055360
  eigenvalues    EBANDS =       179.49720611
  atomic energy  EATOM  =     22461.85434800
  Solvation  Ediel_sol  =         0.00000000
  ---------------------------------------------------
  free energy    TOTEN  =      -590.34764712 eV

  energy without entropy =     -590.34820071  energy(sigma->0) =     -590.34783165


--------------------------------------------------------------------------------------------------------




--------------------------------------- Iteration      1(  11)  ---------------------------------------


    POTLOK:  cpu time      0.3608: real time      0.3637
    SETDIJ:  cpu time      0.0803: real time      0.0824
     EDDAV:  cpu time     51.9207: real time     52.4959
       DOS:  cpu time      0.0023: real time      0.0025
    CHARGE:  cpu time      1.5757: real time      1.5899
    MIXING:  cpu time      0.0154: real time      0.0156
    --------------------------------------------
      LOOP:  cpu time     53.9553: real time     54.5499

 eigenvalue-minimisations  :  4344
 total energy-change (2. order) : 0.1262818E-02  (-0.5809041E-03)
 number of electron     384.0001440 magnetization 
 augmentation part       31.4822615 magnetization 

 Broyden mixing:
  rms(total) = 0.19974E-01    rms(broyden)= 0.19972E-01
  rms(prec ) = 0.22212E-01
  weight for this iteration     100.00

 eigenvalues of (default mixing * dielectric matrix)
  average eigenvalue GAMMA=   1.5640
  2.8075  2.4961  1.0314  1.0314  1.0090  1.0090

 Free energy of the ion-electron system (eV)
  ---------------------------------------------------
  alpha Z        PSCENC =       638.50098632
  Ewald energy   TEWEN  =    -19682.46705803
  -Hartree energ DENC   =     -5713.96214936
  -exchange      EXHF   =         0.00000000
  -V(xc)+E(xc)   XCENC  =       604.77460889
  PAW double counting   =     33533.32588098   -32611.09943194
  entropy T*S    EENTRO =         0.00056128
  eigenvalues    EBANDS =       178.72586956
  atomic energy  EATOM  =     22461.85434800
  Solvation  Ediel_sol  =         0.00000000
  ---------------------------------------------------
  free energy    TOTEN  =      -590.34638430 eV

  energy without entropy =     -590.34694558  energy(sigma->0) =     -590.34657140


--------------------------------------------------------------------------------------------------------




--------------------------------------- Iteration      1(  12)  ---------------------------------------


    POTLOK:  cpu time      0.3603: real time      0.3634
    SETDIJ:  cpu time      0.0800: real time      0.0804
     EDDAV:  cpu time     51.5051: real time     52.0438
       DOS:  cpu time      0.0023: real time      0.0023
    CHARGE:  cpu time      1.5831: real time      1.6275
    MIXING:  cpu time      0.0166: real time      0.0167
    --------------------------------------------
      LOOP:  cpu time     53.5474: real time     54.1341

 eigenvalue-minimisations  :  4296
 total energy-change (2. order) :-0.2563561E-04  (-0.3010284E-03)
 number of electron     384.0001439 magnetization 
 augmentation part       31.4844156 magnetization 

 Broyden mixing:
  rms(total) = 0.42328E-02    rms(broyden)= 0.42038E-02
  rms(prec ) = 0.51412E-02
  weight for this iteration     100.00

 eigenvalues of (default mixing * dielectric matrix)
  average eigenvalue GAMMA=   1.5102
  2.8439  2.4601  1.1209  1.0901  1.0901  0.9832  0.9832

 Free energy of the ion-electron system (eV)
  ---------------------------------------------------
  alpha Z        PSCENC =       638.50098632
  Ewald energy   TEWEN  =    -19682.46705803
  -Hartree energ DENC   =     -5713.89941106
  -exchange      EXHF   =         0.00000000
  -V(xc)+E(xc)   XCENC  =       604.77607677
  PAW double counting   =     33434.23028222   -32512.01136069
  entropy T*S    EENTRO =         0.00056499
  eigenvalues    EBANDS =       178.66916155
  atomic energy  EATOM  =     22461.85434800
  Solvation  Ediel_sol  =         0.00000000
  ---------------------------------------------------
  free energy    TOTEN  =      -590.34640994 eV

  energy without entropy =     -590.34697493  energy(sigma->0) =     -590.34659827


--------------------------------------------------------------------------------------------------------




--------------------------------------- Iteration      1(  13)  ---------------------------------------


    POTLOK:  cpu time      0.3580: real time      0.3612
    SETDIJ:  cpu time      0.0919: real time      0.0925
     EDDAV:  cpu time     51.1319: real time     51.6877
       DOS:  cpu time      0.0022: real time      0.0024
    CHARGE:  cpu time      1.5860: real time      1.6009
    MIXING:  cpu time      0.0171: real time      0.0172
    --------------------------------------------
      LOOP:  cpu time     53.1871: real time     53.7619

 eigenvalue-minimisations  :  4264
 total energy-change (2. order) : 0.1576018E-04  (-0.3179820E-04)
 number of electron     384.0001440 magnetization 
 augmentation part       31.4880817 magnetization 

 Broyden mixing:
  rms(total) = 0.19147E-02    rms(broyden)= 0.19123E-02
  rms(prec ) = 0.21559E-02
  weight for this iteration     100.00

 eigenvalues of (default mixing * dielectric matrix)
  average eigenvalue GAMMA=   1.5002
  2.8521  2.4455  1.8040  0.9946  0.9946  1.0468  1.0468  0.8174

 Free energy of the ion-electron system (eV)
  ---------------------------------------------------
  alpha Z        PSCENC =       638.50098632
  Ewald energy   TEWEN  =    -19682.46705803
  -Hartree energ DENC   =     -5713.43343278
  -exchange      EXHF   =         0.00000000
  -V(xc)+E(xc)   XCENC  =       604.74264455
  PAW double counting   =     33430.88436670   -32508.65216727
  entropy T*S    EENTRO =         0.00056425
  eigenvalues    EBANDS =       178.22335408
  atomic energy  EATOM  =     22461.85434800
  Solvation  Ediel_sol  =         0.00000000
  ---------------------------------------------------
  free energy    TOTEN  =      -590.34639418 eV

  energy without entropy =     -590.34695843  energy(sigma->0) =     -590.34658226


--------------------------------------------------------------------------------------------------------




--------------------------------------- Iteration      1(  14)  ---------------------------------------


    POTLOK:  cpu time      0.3605: real time      0.3637
    SETDIJ:  cpu time      0.0802: real time      0.0807
     EDDAV:  cpu time     51.9724: real time     52.5049
       DOS:  cpu time      0.0024: real time      0.0026
    CHARGE:  cpu time      1.5916: real time      1.6067
    MIXING:  cpu time      0.0184: real time      0.0186
    --------------------------------------------
      LOOP:  cpu time     54.0255: real time     54.5771

 eigenvalue-minimisations  :  4352
 total energy-change (2. order) : 0.1611868E-05  (-0.2731318E-05)
 number of electron     384.0001440 magnetization 
 augmentation part       31.4877384 magnetization 

 Broyden mixing:
  rms(total) = 0.76142E-03    rms(broyden)= 0.76077E-03
  rms(prec ) = 0.84050E-03
  weight for this iteration     100.00

 eigenvalues of (default mixing * dielectric matrix)
  average eigenvalue GAMMA=   1.5188
  2.9194  2.5210  2.1711  0.9934  0.9934  0.9933  0.9933  1.0423  1.0423

 Free energy of the ion-electron system (eV)
  ---------------------------------------------------
  alpha Z        PSCENC =       638.50098632
  Ewald energy   TEWEN  =    -19682.46705803
  -Hartree energ DENC   =     -5713.47539988
  -exchange      EXHF   =         0.00000000
  -V(xc)+E(xc)   XCENC  =       604.74341904
  PAW double counting   =     33426.05434608   -32503.82097837
  entropy T*S    EENTRO =         0.00056403
  eigenvalues    EBANDS =       178.26338025
  atomic energy  EATOM  =     22461.85434800
  Solvation  Ediel_sol  =         0.00000000
  ---------------------------------------------------
  free energy    TOTEN  =      -590.34639256 eV

  energy without entropy =     -590.34695659  energy(sigma->0) =     -590.34658057


--------------------------------------------------------------------------------------------------------




--------------------------------------- Iteration      1(  15)  ---------------------------------------


    POTLOK:  cpu time      0.3573: real time      0.3604
    SETDIJ:  cpu time      0.0803: real time      0.0808
     EDDAV:  cpu time     35.5013: real time     35.9553
       DOS:  cpu time      0.0025: real time      0.0027
    --------------------------------------------
      LOOP:  cpu time     35.9414: real time     36.3992

 eigenvalue-minimisations  :  2616
 total energy-change (2. order) : 0.4530775E-06  (-0.2547796E-06)
 number of electron     384.0001440 magnetization 
 augmentation part       31.4877384 magnetization 

 Free energy of the ion-electron system (eV)
  ---------------------------------------------------
  alpha Z        PSCENC =       638.50098632
  Ewald energy   TEWEN  =    -19682.46705803
  -Hartree energ DENC   =     -5713.53558497
  -exchange      EXHF   =         0.00000000
  -V(xc)+E(xc)   XCENC  =       604.74648605
  PAW double counting   =     33422.87802146   -32500.64363961
  entropy T*S    EENTRO =         0.00056400
  eigenvalues    EBANDS =       178.31948467
  atomic energy  EATOM  =     22461.85434800
  Solvation  Ediel_sol  =         0.00000000
  ---------------------------------------------------
  free energy    TOTEN  =      -590.34639211 eV

  energy without entropy =     -590.34695611  energy(sigma->0) =     -590.34658011


--------------------------------------------------------------------------------------------------------




 average (electrostatic) potential at core
  the test charge radii are     1.0406  0.7215
  (the norm of the test charge is              1.0000)
       1 -70.7044       2 -70.7044       3 -70.7044       4 -70.7044       5 -70.7044
       6 -70.7044       7 -70.7044       8 -70.7044       9 -70.7044      10 -70.7044
      11 -70.7044      12 -70.7044      13 -70.7044      14 -70.7044      15 -70.7044
      16 -70.7044      17 -70.7044      18 -70.7044      19 -70.7044      20 -70.7044
      21 -70.7044      22 -70.7044      23 -70.7044      24 -70.7044      25 -70.7044
      26 -70.7044      27 -70.7044      28 -70.7044      29 -70.7044      30 -70.7044
      31 -70.7044      32 -70.7044      33 -66.4043      34 -66.4043      35 -66.4043
      36 -66.4043      37 -66.4043      38 -66.4043      39 -66.4043      40 -66.4043
      41 -66.4043      42 -66.4043      43 -66.4043      44 -66.4043      45 -66.4043
      46 -66.4043      47 -66.4043      48 -66.4043      49 -66.4043      50 -66.4043
      51 -66.4043      52 -66.4043      53 -66.4043      54 -66.4043      55 -66.4043
      56 -66.4043      57 -66.4043      58 -66.4043      59 -66.4043      60 -66.4043
      61 -66.4043      62 -66.4043      63 -66.4043      64 -66.4043      65 -66.2602
      66 -66.2602      67 -66.2602      68 -66.2602      69 -66.2602      70 -66.2602
      71 -66.2602      72 -66.2602      73 -66.2602      74 -66.2602      75 -66.2602
      76 -66.2602      77 -66.2602      78 -66.2602      79 -66.2602      80 -66.2602



 E-fermi :   6.9641     XC(G=0): -12.0082     alpha+bet :-17.6957

 Fermi energy:         6.9641186046

 k-point     1 :       0.1250    0.1250    0.1250
  band No.  band energies     occupation 
      1     -12.6021      2.00000
      2     -11.9698      2.00000
      3     -11.9427      2.00000
      4     -11.5916      2.00000
      5     -11.5574      2.00000
      6     -11.5320      2.00000
      7     -11.3883      2.00000
      8     -11.0754      2.00000
      9     -11.0625      2.00000
     10     -11.0005      2.00000
     11     -10.9915      2.00000
     12     -10.8304      2.00000
     13     -10.7430      2.00000
     14     -10.6852      2.00000
     15     -10.5604      2.00000
     16     -10.4429      2.00000
     17     -10.4391      2.00000
     18     -10.3439      2.00000
     19     -10.3003      2.00000
     20     -10.2783      2.00000
     21     -10.2355      2.00000
     22     -10.2292      2.00000
     23     -10.1724      2.00000
     24     -10.0967      2.00000
     25     -10.0939      2.00000
     26     -10.0876      2.00000
     27     -10.0491      2.00000
     28      -9.9721      2.00000
     29      -9.9291      2.00000
     30      -9.8394      2.00000
     31      -9.8164      2.00000
     32      -9.8089      2.00000
     33      -9.6917      2.00000
     34      -9.6604      2.00000
     35      -9.6484      2.00000
     36      -9.6386      2.00000
     37      -9.6117      2.00000
     38      -9.6077      2.00000
     39      -9.6052      2.00000
     40      -9.5899      2.00000
     41      -9.5252      2.00000
     42      -9.5063      2.00000
     43      -9.5024      2.00000
     44      -9.4724      2.00000
     45      -9.3998      2.00000
     46      -9.3421      2.00000
     47      -9.2678      2.00000
     48      -9.2400      2.00000
     49       0.3177      2.00000
     50       0.3882      2.00000
     51       0.4373      2.00000
     52       0.4679      2.00000
     53       0.5172      2.00000
     54       0.5763      2.00000
     55       0.6044      2.00000
     56       0.7314      2.00000
     57       0.8038      2.00000
     58       0.8135      2.00000
     59       0.8234      2.00000
     60       0.8578      2.00000
     61       0.9363      2.00000
     62       0.9811      2.00000
     63       1.0251      2.00000
     64       1.0416      2.00000
     65       1.0725      2.00000
     66       1.2098      2.00000
     67       1.4296      2.00000
     68       1.4877      2.00000
     69       1.5013      2.00000
     70       1.5584      2.00000
     71       1.5917      2.00000
     72       1.6559      2.00000
     73       1.7054      2.00000
     74       1.7722      2.00000
     75       1.8285      2.00000
     76       1.9191      2.00000
     77       1.9884      2.00000
     78       2.0500      2.00000
     79       2.1395      2.00000
     80       2.1691      2.00000
     81       2.1704      2.00000
     82       2.2016      2.00000
     83       2.2363      2.00000
     84       2.2453      2.00000
     85       2.3865      2.00000
     86       2.4255      2.00000
     87       2.4427      2.00000
     88       2.4552      2.00000
     89       2.5084      2.00000
     90       2.5213      2.00000
     91       2.5260      2.00000
     92       2.5420      2.00000
     93       2.5978      2.00000
     94       2.7579      2.00000
     95       2.9376      2.00000
     96       2.9865      2.00000
     97       3.0328      2.00000
     98       3.1346      2.00000
     99       3.1858      2.00000
    100       3.2678      2.00000
    101       3.3895      2.00000
    102       3.4039      2.00000
    103       3.4475      2.00000
    104       3.4486      2.00000
    105       3.6117      2.00000
    106       3.6874      2.00000
    107       3.7833      2.00000
    108       3.8295      2.00000
    109       3.8514      2.00000
    110       3.9667      2.00000
    111       4.0004      2.00000
    112       4.0422      2.00000
    113       4.0465      2.00000
    114       4.1124      2.00000
    115       4.1657      2.00000
    116       4.1764      2.00000
    117       4.2075      2.00000
    118       4.2079      2.00000
    119       4.2435      2.00000
    120       4.3946      2.00000
    121       4.3951      2.00000
    122       4.4250      2.00000
    123       4.4473      2.00000
    124       4.4977      2.00000
    125       4.5492      2.00000
    126       4.5611      2.00000
    127       4.6030      2.00000
    128       4.6674      2.00000
    129       4.7890      2.00000
    130       4.7956      2.00000
    131       4.9423      2.00000
    132       4.9503      2.00000
    133       4.9822      2.00000
    134       4.9905      2.00000
    135       5.1107      2.00000
    136       5.1638      2.00000
    137       5.1643      2.00000
    138       5.2037      2.00000
    139       5.2122      2.00000
    140       5.2773      2.00000
    141       5.3288      2.00000
    142       5.3311      2.00000
    143       5.3827      2.00000
    144       5.3959      2.00000
    145       5.4154      2.00000
    146       5.4331      2.00000
    147       5.4446      2.00000
    148       5.4493      2.00000
    149       5.5082      2.00000
    150       5.5764      2.00000
    151       5.6206      2.00000
    152       5.6405      2.00000
    153       5.6635      2.00000
    154       5.6701      2.00000
    155       5.6977      2.00000
    156       5.7019      2.00000
    157       5.8009      2.00000
    158       5.8097      2.00000
    159       5.8987      2.00000
    160       5.8999      2.00000
    161       5.9039      2.00000
    162       5.9311      2.00000
    163       5.9535      2.00000
    164       5.9691      2.00000
    165       6.0634      2.00000
    166       6.0702      2.00000
    167       6.0812      2.00000
    168       6.2047      2.00000
    169       6.2084      2.00000
    170       6.2188      2.00000
    171       6.2348      2.00000
    172       6.3128      2.00000
    173       6.3276      2.00000
    174       6.3700      2.00000
    175       6.3830      2.00000
    176       6.4569      2.00000
[...]
     0.000000000  9.782705327  0.000000000     0.000000000  0.102221212  0.000000000
     0.000000000  0.000000000  6.952749578     0.000000000  0.000000000  0.143827990

  length of vectors
     9.512375819  9.782705327  6.952749578     0.105126208  0.102221212  0.143827990


 FORCES acting on ions
    electron-ion (+dipol)            ewald-force                    non-local-force                 convergence-correction
 -----------------------------------------------------------------------------------------------
   0.347E+01 -.305E+01 0.168E+02   -.335E+01 0.719E+00 -.161E+02   -.126E+00 0.240E+01 -.836E+00   -.455E-05 -.162E-05 0.703E-04
   0.347E+01 -.305E+01 0.168E+02   -.335E+01 0.719E+00 -.161E+02   -.126E+00 0.240E+01 -.836E+00   -.455E-05 0.183E-05 0.701E-04
   0.347E+01 -.305E+01 0.168E+02   -.335E+01 0.719E+00 -.161E+02   -.126E+00 0.240E+01 -.836E+00   -.629E-05 -.161E-05 0.702E-04
   0.347E+01 -.305E+01 0.168E+02   -.335E+01 0.719E+00 -.161E+02   -.126E+00 0.240E+01 -.836E+00   -.630E-05 0.184E-05 0.700E-04
   0.347E+01 0.305E+01 -.168E+02   -.335E+01 -.719E+00 0.161E+02   -.126E+00 -.240E+01 0.836E+00   -.455E-05 -.695E-07 -.696E-04
   0.347E+01 0.305E+01 -.168E+02   -.335E+01 -.719E+00 0.161E+02   -.126E+00 -.240E+01 0.836E+00   -.455E-05 -.145E-06 -.696E-04
   0.347E+01 0.305E+01 -.168E+02   -.335E+01 -.719E+00 0.161E+02   -.126E+00 -.240E+01 0.836E+00   -.629E-05 -.719E-07 -.695E-04
   0.347E+01 0.305E+01 -.168E+02   -.335E+01 -.719E+00 0.161E+02   -.126E+00 -.240E+01 0.836E+00   -.630E-05 -.147E-06 -.695E-04
   -.347E+01 -.305E+01 -.168E+02   0.335E+01 0.719E+00 0.161E+02   0.126E+00 0.240E+01 0.836E+00   0.628E-05 0.646E-06 -.704E-04
   -.347E+01 -.305E+01 -.168E+02   0.335E+01 0.719E+00 0.161E+02   0.126E+00 0.240E+01 0.836E+00   0.628E-05 -.389E-06 -.704E-04
   -.347E+01 -.305E+01 -.168E+02   0.335E+01 0.719E+00 0.161E+02   0.126E+00 0.240E+01 0.836E+00   0.446E-05 0.644E-06 -.705E-04
   -.347E+01 -.305E+01 -.168E+02   0.335E+01 0.719E+00 0.161E+02   0.126E+00 0.240E+01 0.836E+00   0.446E-05 -.391E-06 -.705E-04
   -.347E+01 0.305E+01 0.168E+02   0.335E+01 -.719E+00 -.161E+02   0.126E+00 -.240E+01 -.836E+00   0.628E-05 0.164E-05 0.699E-04
   -.347E+01 0.305E+01 0.168E+02   0.335E+01 -.719E+00 -.161E+02   0.126E+00 -.240E+01 -.836E+00   0.629E-05 -.190E-05 0.697E-04
   -.347E+01 0.305E+01 0.168E+02   0.335E+01 -.719E+00 -.161E+02   0.126E+00 -.240E+01 -.836E+00   0.446E-05 0.165E-05 0.700E-04
   -.347E+01 0.305E+01 0.168E+02   0.335E+01 -.719E+00 -.161E+02   0.126E+00 -.240E+01 -.836E+00   0.447E-05 -.190E-05 0.698E-04
   -.347E+01 0.305E+01 -.168E+02   0.335E+01 -.719E+00 0.161E+02   0.126E+00 -.240E+01 0.836E+00   0.546E-05 0.165E-05 -.696E-04
   -.347E+01 0.305E+01 -.168E+02   0.335E+01 -.719E+00 0.161E+02   0.126E+00 -.240E+01 0.836E+00   0.547E-05 -.190E-05 -.694E-04
   -.347E+01 0.305E+01 -.168E+02   0.335E+01 -.719E+00 0.161E+02   0.126E+00 -.240E+01 0.836E+00   0.538E-05 0.165E-05 -.697E-04
   -.347E+01 0.305E+01 -.168E+02   0.335E+01 -.719E+00 0.161E+02   0.126E+00 -.240E+01 0.836E+00   0.538E-05 -.190E-05 -.694E-04
   -.347E+01 -.305E+01 0.168E+02   0.335E+01 0.719E+00 -.161E+02   0.126E+00 0.240E+01 -.836E+00   0.547E-05 0.643E-06 0.701E-04
   -.347E+01 -.305E+01 0.168E+02   0.335E+01 0.719E+00 -.161E+02   0.126E+00 0.240E+01 -.836E+00   0.547E-05 -.392E-06 0.701E-04
   -.347E+01 -.305E+01 0.168E+02   0.335E+01 0.719E+00 -.161E+02   0.126E+00 0.240E+01 -.836E+00   0.538E-05 0.643E-06 0.702E-04
   -.347E+01 -.305E+01 0.168E+02   0.335E+01 0.719E+00 -.161E+02   0.126E+00 0.240E+01 -.836E+00   0.538E-05 -.392E-06 0.702E-04
   0.347E+01 0.305E+01 0.168E+02   -.335E+01 -.719E+00 -.161E+02   -.126E+00 -.240E+01 -.836E+00   -.526E-05 -.699E-07 0.698E-04
   0.347E+01 0.305E+01 0.168E+02   -.335E+01 -.719E+00 -.161E+02   -.126E+00 -.240E+01 -.836E+00   -.526E-05 -.145E-06 0.699E-04
   0.347E+01 0.305E+01 0.168E+02   -.335E+01 -.719E+00 -.161E+02   -.126E+00 -.240E+01 -.836E+00   -.549E-05 -.739E-07 0.698E-04
   0.347E+01 0.305E+01 0.168E+02   -.335E+01 -.719E+00 -.161E+02   -.126E+00 -.240E+01 -.836E+00   -.549E-05 -.149E-06 0.698E-04
   0.347E+01 -.305E+01 -.168E+02   -.335E+01 0.719E+00 0.161E+02   -.126E+00 0.240E+01 0.836E+00   -.526E-05 -.162E-05 -.706E-04
   0.347E+01 -.305E+01 -.168E+02   -.335E+01 0.719E+00 0.161E+02   -.126E+00 0.240E+01 0.836E+00   -.526E-05 0.183E-05 -.704E-04
   0.347E+01 -.305E+01 -.168E+02   -.335E+01 0.719E+00 0.161E+02   -.126E+00 0.240E+01 0.836E+00   -.548E-05 -.161E-05 -.705E-04
   0.347E+01 -.305E+01 -.168E+02   -.335E+01 0.719E+00 0.161E+02   -.126E+00 0.240E+01 0.836E+00   -.549E-05 0.184E-05 -.703E-04
   0.687E+01 0.336E+01 -.188E+02   -.557E+01 -.265E+01 0.198E+02   -.128E+01 -.690E+00 -.102E+01   -.188E-03 0.279E-04 -.696E-03
   0.687E+01 0.336E+01 -.188E+02   -.557E+01 -.265E+01 0.198E+02   -.128E+01 -.690E+00 -.102E+01   -.188E-03 0.355E-04 -.696E-03
   0.687E+01 0.336E+01 -.188E+02   -.557E+01 -.265E+01 0.198E+02   -.128E+01 -.690E+00 -.102E+01   -.192E-03 0.279E-04 -.695E-03
   0.687E+01 0.336E+01 -.188E+02   -.557E+01 -.265E+01 0.198E+02   -.128E+01 -.690E+00 -.102E+01   -.192E-03 0.355E-04 -.696E-03
   0.687E+01 -.336E+01 0.188E+02   -.557E+01 0.265E+01 -.198E+02   -.128E+01 0.690E+00 0.102E+01   -.188E-03 -.321E-04 0.697E-03
   0.687E+01 -.336E+01 0.188E+02   -.557E+01 0.265E+01 -.198E+02   -.128E+01 0.690E+00 0.102E+01   -.188E-03 -.313E-04 0.697E-03
   0.687E+01 -.336E+01 0.188E+02   -.557E+01 0.265E+01 -.198E+02   -.128E+01 0.690E+00 0.102E+01   -.192E-03 -.321E-04 0.697E-03
   0.687E+01 -.336E+01 0.188E+02   -.557E+01 0.265E+01 -.198E+02   -.128E+01 0.690E+00 0.102E+01   -.192E-03 -.313E-04 0.697E-03
   -.687E+01 0.336E+01 0.188E+02   0.557E+01 -.265E+01 -.198E+02   0.128E+01 -.690E+00 0.102E+01   0.192E-03 0.334E-04 0.697E-03
   -.687E+01 0.336E+01 0.188E+02   0.557E+01 -.265E+01 -.198E+02   0.128E+01 -.690E+00 0.102E+01   0.192E-03 0.301E-04 0.697E-03
   -.687E+01 0.336E+01 0.188E+02   0.557E+01 -.265E+01 -.198E+02   0.128E+01 -.690E+00 0.102E+01   0.188E-03 0.334E-04 0.697E-03
   -.687E+01 0.336E+01 0.188E+02   0.557E+01 -.265E+01 -.198E+02   0.128E+01 -.690E+00 0.102E+01   0.188E-03 0.301E-04 0.697E-03
   -.687E+01 -.336E+01 -.188E+02   0.557E+01 0.265E+01 0.198E+02   0.128E+01 0.690E+00 -.102E+01   0.192E-03 -.275E-04 -.698E-03
   -.687E+01 -.336E+01 -.188E+02   0.557E+01 0.265E+01 0.198E+02   0.128E+01 0.690E+00 -.102E+01   0.192E-03 -.360E-04 -.698E-03
   -.687E+01 -.336E+01 -.188E+02   0.557E+01 0.265E+01 0.198E+02   0.128E+01 0.690E+00 -.102E+01   0.188E-03 -.275E-04 -.698E-03
   -.687E+01 -.336E+01 -.188E+02   0.557E+01 0.265E+01 0.198E+02   0.128E+01 0.690E+00 -.102E+01   0.188E-03 -.360E-04 -.699E-03
   -.687E+01 -.336E+01 0.188E+02   0.557E+01 0.265E+01 -.198E+02   0.128E+01 0.690E+00 0.102E+01   0.189E-03 -.275E-04 0.697E-03
   -.687E+01 -.336E+01 0.188E+02   0.557E+01 0.265E+01 -.198E+02   0.128E+01 0.690E+00 0.102E+01   0.189E-03 -.360E-04 0.697E-03
   -.687E+01 -.336E+01 0.188E+02   0.557E+01 0.265E+01 -.198E+02   0.128E+01 0.690E+00 0.102E+01   0.191E-03 -.275E-04 0.697E-03
   -.687E+01 -.336E+01 0.188E+02   0.557E+01 0.265E+01 -.198E+02   0.128E+01 0.690E+00 0.102E+01   0.191E-03 -.360E-04 0.697E-03
   -.687E+01 0.336E+01 -.188E+02   0.557E+01 -.265E+01 0.198E+02   0.128E+01 -.690E+00 -.102E+01   0.189E-03 0.334E-04 -.696E-03
   -.687E+01 0.336E+01 -.188E+02   0.557E+01 -.265E+01 0.198E+02   0.128E+01 -.690E+00 -.102E+01   0.189E-03 0.301E-04 -.696E-03
   -.687E+01 0.336E+01 -.188E+02   0.557E+01 -.265E+01 0.198E+02   0.128E+01 -.690E+00 -.102E+01   0.191E-03 0.334E-04 -.696E-03
   -.687E+01 0.336E+01 -.188E+02   0.557E+01 -.265E+01 0.198E+02   0.128E+01 -.690E+00 -.102E+01   0.191E-03 0.301E-04 -.696E-03
   0.687E+01 -.336E+01 -.188E+02   -.557E+01 0.265E+01 0.198E+02   -.128E+01 0.690E+00 -.102E+01   -.189E-03 -.321E-04 -.698E-03
   0.687E+01 -.336E+01 -.188E+02   -.557E+01 0.265E+01 0.198E+02   -.128E+01 0.690E+00 -.102E+01   -.189E-03 -.312E-04 -.698E-03
   0.687E+01 -.336E+01 -.188E+02   -.557E+01 0.265E+01 0.198E+02   -.128E+01 0.690E+00 -.102E+01   -.191E-03 -.321E-04 -.698E-03
   0.687E+01 -.336E+01 -.188E+02   -.557E+01 0.265E+01 0.198E+02   -.128E+01 0.690E+00 -.102E+01   -.191E-03 -.313E-04 -.698E-03
   0.687E+01 0.336E+01 0.188E+02   -.557E+01 -.265E+01 -.198E+02   -.128E+01 -.690E+00 0.102E+01   -.189E-03 0.279E-04 0.697E-03
   0.687E+01 0.336E+01 0.188E+02   -.557E+01 -.265E+01 -.198E+02   -.128E+01 -.690E+00 0.102E+01   -.189E-03 0.355E-04 0.697E-03
   0.687E+01 0.336E+01 0.188E+02   -.557E+01 -.265E+01 -.198E+02   -.128E+01 -.690E+00 0.102E+01   -.191E-03 0.279E-04 0.697E-03
   0.687E+01 0.336E+01 0.188E+02   -.557E+01 -.265E+01 -.198E+02   -.128E+01 -.690E+00 0.102E+01   -.191E-03 0.355E-04 0.697E-03
   -.204E+02 -.433E-04 -.292E-04   0.214E+02 0.118E-04 0.404E-04   -.938E+00 -.225E-19 -.186E-18   -.135E-03 -.246E-05 -.143E-05
   -.204E+02 -.410E-04 -.251E-04   0.214E+02 -.423E-05 0.481E-05   -.938E+00 0.360E-19 0.618E-20   -.135E-03 0.245E-05 -.716E-06
   -.204E+02 -.433E-04 -.292E-04   0.214E+02 0.118E-04 0.404E-04   -.938E+00 -.488E-19 -.505E-19   -.138E-03 -.246E-05 -.143E-05
   -.204E+02 -.410E-04 -.251E-04   0.214E+02 -.423E-05 0.481E-05   -.938E+00 0.535E-20 -.114E-18   -.138E-03 0.245E-05 -.716E-06
   0.204E+02 -.423E-04 -.471E-04   -.214E+02 -.143E-05 -.187E-04   0.938E+00 0.155E-18 0.355E-19   0.138E-03 0.338E-05 0.765E-06
   0.204E+02 -.439E-04 -.429E-04   -.214E+02 0.156E-04 -.429E-04   0.938E+00 0.163E-18 -.877E-19   0.138E-03 -.339E-05 0.141E-05
   0.204E+02 -.423E-04 -.471E-04   -.214E+02 -.143E-05 -.187E-04   0.938E+00 0.211E-18 0.136E-18   0.135E-03 0.338E-05 0.765E-06
   0.204E+02 -.439E-04 -.429E-04   -.214E+02 0.156E-04 -.429E-04   0.938E+00 0.228E-18 -.896E-19   0.135E-03 -.339E-05 0.141E-05
   0.204E+02 -.452E-04 -.564E-04   -.214E+02 -.394E-05 0.118E-04   0.938E+00 0.149E-18 0.583E-19   0.136E-03 0.338E-05 -.751E-06
   0.204E+02 -.468E-04 -.606E-04   -.214E+02 0.131E-04 0.359E-04   0.938E+00 0.648E-19 -.122E-19   0.136E-03 -.339E-05 -.140E-05
   0.204E+02 -.452E-04 -.564E-04   -.214E+02 -.394E-05 0.118E-04   0.938E+00 0.125E-18 0.100E-18   0.138E-03 0.338E-05 -.751E-06
   0.204E+02 -.468E-04 -.606E-04   -.214E+02 0.131E-04 0.359E-04   0.938E+00 0.206E-18 -.518E-19   0.138E-03 -.339E-05 -.140E-05
   -.204E+02 -.484E-04 -.116E-04   0.214E+02 0.143E-04 -.473E-04   -.938E+00 -.537E-19 0.526E-19   -.135E-03 -.246E-05 0.144E-05
   -.204E+02 -.462E-04 -.157E-04   0.214E+02 -.173E-05 -.117E-04   -.938E+00 -.150E-18 0.177E-18   -.135E-03 0.245E-05 0.730E-06
   -.204E+02 -.484E-04 -.116E-04   0.214E+02 0.143E-04 -.473E-04   -.938E+00 0.524E-19 0.550E-19   -.138E-03 -.246E-05 0.144E-05
   -.204E+02 -.462E-04 -.157E-04   0.214E+02 -.173E-05 -.117E-04   -.938E+00 -.132E-18 0.677E-19   -.138E-03 0.245E-05 0.730E-06
 -----------------------------------------------------------------------------------------------
   0.491E-02 -.234E-02 -.773E-03   0.711E-14 -.588E-13 0.224E-12   -.333E-15 -.322E-14 -.133E-14   0.144E-06 -.299E-07 0.610E-08


 POSITION                                       TOTAL-FORCE (eV/Angst)
 -----------------------------------------------------------------------------------
      1.19999      0.15356      2.71149        -0.008587      0.065648     -0.050228
      1.19999      5.04491      2.71149        -0.008587      0.065648     -0.050228
      5.95618      0.15356      2.71149        -0.008587      0.065648     -0.050228
      5.95618      5.04491      2.71149        -0.008587      0.065648     -0.050228
      1.19999      2.29212      4.24126        -0.008587     -0.065648      0.050228
      1.19999      7.18347      4.24126        -0.008587     -0.065648      0.050228
      5.95618      2.29212      4.24126        -0.008587     -0.065648      0.050228
      5.95618      7.18347      4.24126        -0.008587     -0.065648      0.050228
      1.17810      2.59924      0.76488         0.008587      0.065648      0.050228
      1.17810      7.49059      0.76488         0.008587      0.065648      0.050228
      5.93429      2.59924      0.76488         0.008587      0.065648      0.050228
      5.93429      7.49059      0.76488         0.008587      0.065648      0.050228
      1.17810      4.73779      6.18787         0.008587     -0.065648     -0.050228
      1.17810      9.62914      6.18787         0.008587     -0.065648     -0.050228
      5.93429      4.73779      6.18787         0.008587     -0.065648     -0.050228
      5.93429      9.62914      6.18787         0.008587     -0.065648     -0.050228
      3.55620      4.73779      4.24126         0.008587     -0.065648      0.050228
      3.55620      9.62914      4.24126         0.008587     -0.065648      0.050228
      8.31238      4.73779      4.24126         0.008587     -0.065648      0.050228
      8.31238      9.62914      4.24126         0.008587     -0.065648      0.050228
      3.55620      2.59924      2.71149         0.008587      0.065648     -0.050228
      3.55620      7.49059      2.71149         0.008587      0.065648     -0.050228
      8.31238      2.59924      2.71149         0.008587      0.065648     -0.050228
      8.31238      7.49059      2.71149         0.008587      0.065648     -0.050228
      3.57809      2.29212      6.18787        -0.008587     -0.065648     -0.050228
      3.57809      7.18347      6.18787        -0.008587     -0.065648     -0.050228
      8.33427      2.29212      6.18787        -0.008587     -0.065648     -0.050228
      8.33427      7.18347      6.18787        -0.008587     -0.065648     -0.050228
      3.57809      0.15356      0.76488        -0.008587      0.065648      0.050228
      3.57809      5.04491      0.76488        -0.008587      0.065648      0.050228
      8.33427      0.15356      0.76488        -0.008587      0.065648      0.050228
      8.33427      5.04491      0.76488        -0.008587      0.065648      0.050228
      0.50926      0.50083      4.54813         0.021628      0.019720      0.030227
      0.50926      5.39218      4.54813         0.021628      0.019720      0.030227
      5.26544      0.50083      4.54813         0.021628      0.019720      0.030227
      5.26544      5.39218      4.54813         0.021628      0.019720      0.030227
      0.50926      1.94485      2.40462         0.021628     -0.019720     -0.030227
      0.50926      6.83620      2.40462         0.021628     -0.019720     -0.030227
      5.26544      1.94485      2.40462         0.021628     -0.019720     -0.030227
      5.26544      6.83620      2.40462         0.021628     -0.019720     -0.030227
      1.86884      2.94651      5.88099        -0.021628      0.019720     -0.030227
      1.86884      7.83786      5.88099        -0.021628      0.019720     -0.030227
      6.62502      2.94651      5.88099        -0.021628      0.019720     -0.030227
      6.62502      7.83786      5.88099        -0.021628      0.019720     -0.030227
      1.86884      4.39052      1.07176        -0.021628     -0.019720      0.030227
      1.86884      9.28187      1.07176        -0.021628     -0.019720      0.030227
      6.62502      4.39052      1.07176        -0.021628     -0.019720      0.030227
      6.62502      9.28187      1.07176        -0.021628     -0.019720      0.030227
      4.24693      4.39052      2.40462        -0.021628     -0.019720     -0.030227
      4.24693      9.28187      2.40462        -0.021628     -0.019720     -0.030227
      9.00312      4.39052      2.40462        -0.021628     -0.019720     -0.030227
      9.00312      9.28187      2.40462        -0.021628     -0.019720     -0.030227
      4.24693      2.94651      4.54813        -0.021628      0.019720      0.030227
      4.24693      7.83786      4.54813        -0.021628      0.019720      0.030227
      9.00312      2.94651      4.54813        -0.021628      0.019720      0.030227
      9.00312      7.83786      4.54813        -0.021628      0.019720      0.030227
      2.88735      1.94485      1.07176         0.021628     -0.019720      0.030227
      2.88735      6.83620      1.07176         0.021628     -0.019720      0.030227
      7.64354      1.94485      1.07176         0.021628     -0.019720      0.030227
      7.64354      6.83620      1.07176         0.021628     -0.019720      0.030227
      2.88735      0.50083      5.88099         0.021628      0.019720     -0.030227
      2.88735      5.39218      5.88099         0.021628      0.019720     -0.030227
      7.64354      0.50083      5.88099         0.021628      0.019720     -0.030227
      7.64354      5.39218      5.88099         0.021628      0.019720     -0.030227
      0.23870      1.22284      0.00000         0.029970     -0.000000      0.000000
      0.23870      6.11419      0.00000         0.029970     -0.000000      0.000000
      4.99489      1.22284      0.00000         0.029970     -0.000000      0.000000
      4.99489      6.11419      0.00000         0.029970     -0.000000      0.000000
      2.13939      3.66851      3.47637        -0.029970     -0.000000      0.000000
      2.13939      8.55987      3.47637        -0.029970     -0.000000      0.000000
      6.89558      3.66851      3.47637        -0.029970     -0.000000      0.000000
      6.89558      8.55987      3.47637        -0.029970     -0.000000      0.000000
      4.51748      3.66851      0.00000        -0.029970     -0.000000      0.000000
      4.51748      8.55987      0.00000        -0.029970     -0.000000      0.000000
      9.27367      3.66851      0.00000        -0.029970     -0.000000      0.000000
      9.27367      8.55987      0.00000        -0.029970     -0.000000      0.000000
      2.61680      1.22284      3.47637         0.029970     -0.000000      0.000000
      2.61680      6.11419      3.47637         0.029970     -0.000000      0.000000
      7.37299      1.22284      3.47637         0.029970     -0.000000      0.000000
      7.37299      6.11419      3.47637         0.029970     -0.000000      0.000000
 -----------------------------------------------------------------------------------
    total drift:                                0.004907     -0.002336     -0.000773


--------------------------------------------------------------------------------------------------------



  FREE ENERGIE OF THE ION-ELECTRON SYSTEM (eV)
  ---------------------------------------------------
  free  energy   TOTEN  =      -590.34639211 eV

  energy  without entropy=     -590.34695611  energy(sigma->0) =     -590.34658011



--------------------------------------------------------------------------------------------------------


    POTLOK:  cpu time      0.3919: real time      0.4020


--------------------------------------------------------------------------------------------------------


 writing wavefunctions
     LOOP+:  cpu time    830.6684: real time    884.6060
    4ORBIT:  cpu time      0.0000: real time      0.0000

 total amount of memory used by VASP MPI-rank0   473580. kBytes
=======================================================================

   base      :      30000. kBytes
   nonlr-proj:       8724. kBytes
   fftplans  :      23216. kBytes
   grid      :      41250. kBytes
   one-center:        245. kBytes
   wavefun   :     370145. kBytes

  
  
 General timing and accounting informations for this job:
 ========================================================
  
                  Total CPU time used (sec):      838.060
                            User time (sec):      835.368
                          System time (sec):        2.692
                         Elapsed time (sec):      937.700
  
                   Maximum memory used (kb):      653520.
                   Average memory used (kb):          N/A
  
                          Minor page faults:       330398
                          Major page faults:            0
                 Voluntary context switches:         1288
