 vasp.6.3.0 20Jan22 (build Jul  1 2024 12:21:46) complex                         
 executed on             LinuxGNU date 2024.10.21  13:11:34
 running    1 mpi-ranks, with    1 threads/rank
 distrk:  each k-point on    1 cores,    1 groups
 distr:  one band on NCORE=   1 cores,    1 groups


--------------------------------------------------------------------------------------------------------


 INCAR:
   SYSTEM = Alumina_orthorombic_cell_under_strain
   ISTART = 0
   ICHARG = 2
   ENCUT = 400
   ALGO = Normal
   PREC = Normal
   ISPIN = 1
   LWAVE = T             (Write WAVECAR)
   LCHARG = T             (Write CHGCAR)
   NPAR = 1
   EDIFF = 1E-6
   NSW = 0
   NELM = 100
   POTIM = 0.5
   IBRION = -1
   ISMEAR = 1
   SIGMA = 0.026
   EDIFFG = -0.001
   ISIF = 2
   LREAL = Auto

 POTCAR:    PAW_PBE Al 04Jan2001                  
 POTCAR:    PAW_PBE O 08Apr2002                   
 POTCAR:    PAW_PBE Al 04Jan2001                  
   SHA256 =  17880443556af62b473fe41b62a467bd001ad55d2cabe504a3f22e34d4e9db96 Al/POTCAR             
   COPYR  = (c) Copyright 04Jan2001 Georg Kresse                                                    
   COPYR  = This file is part of the software VASP. Any use, copying, and all other rights are regul
   COPYR  = If you do not have a valid VASP license, you may not use, copy or distribute this file. 
   VRHFIN =Al: s2p1                                                                                 
   LEXCH  = PE                                                                                      
   EATOM  =    53.5387 eV,    3.9350 Ry                                                             
                                                                                                    
   TITEL  = PAW_PBE Al 04Jan2001                                                                    
   LULTRA =        F    use ultrasoft PP ?                                                          
   IUNSCR =        1    unscreen: 0-lin 1-nonlin 2-no                                               
   RPACOR =    1.500    partial core radius                                                         
   POMASS =   26.981; ZVAL   =    3.000    mass and valenz                                          
   RCORE  =    1.900    outmost cutoff radius                                                       
   RWIGS  =    2.650; RWIGS  =    1.402    wigner-seitz radius (au A)                               
   ENMAX  =  240.300; ENMIN  =  180.225 eV                                                          
   ICORE  =        2    local potential                                                             
   LCOR   =        T    correct aug charges                                                         
   LPAW   =        T    paw PP                                                                      
   EAUG   =  291.052                                                                                
   DEXC   =    0.000                                                                                
   RMAX   =    1.939    core radius for proj-oper                                                   
   RAUG   =    1.300    factor for augmentation sphere                                              
   RDEP   =    1.966    radius for radial grids                                                     
   RDEPT  =    1.856    core radius for aug-charge                                                  
                                                                                                    
   Atomic configuration                                                                             
    6 entries                                                                                       
     n  l   j            E        occ.                                                              
     1  0  0.50     -1511.1048   2.0000                                                             
     2  0  0.50      -108.1629   2.0000                                                             
     2  1  1.50       -69.6402   6.0000                                                             
     3  0  0.50        -7.7528   2.0000                                                             
     3  1  1.50        -2.7121   1.0000                                                             
     3  2  2.50        -2.7212   0.0000                                                             
   Description                                                                                      
     l       E           TYP  RCUT    TYP  RCUT                                                     
     0     -7.7528455     23  1.900                                                                 
     0     -3.3096929     23  1.900                                                                 
     1     -2.7120682     23  1.900                                                                 
     1     13.6058260     23  1.900                                                                 
     2     -2.7211652      7  1.900                                                                 
  local pseudopotential read in
  partial core-charges read in
  partial kinetic energy density read in
  atomic valenz-charges read in
  non local Contribution for L=           0  read in
    real space projection operators read in
  non local Contribution for L=           0  read in
    real space projection operators read in
  non local Contribution for L=           1  read in
    real space projection operators read in
  non local Contribution for L=           1  read in
    real space projection operators read in
    PAW grid and wavefunctions read in

   number of l-projection  operators is LMAX  =           4
   number of lm-projection operators is LMMAX =           8

 POTCAR:    PAW_PBE O 08Apr2002                   
   SHA256 =  818f92134a0a090dccd8ba1447fa70422a3b330e708bb4f08108d8ae51209ddf O/POTCAR              
   COPYR  = (c) Copyright 08Apr2002 Georg Kresse                                                    
   COPYR  = This file is part of the software VASP. Any use, copying, and all other rights are regul
   COPYR  = If you do not have a valid VASP license, you may not use, copy or distribute this file. 
   VRHFIN =O: s2p4                                                                                  
   LEXCH  = PE                                                                                      
   EATOM  =   432.3788 eV,   31.7789 Ry                                                             
                                                                                                    
   TITEL  = PAW_PBE O 08Apr2002                                                                     
   LULTRA =        F    use ultrasoft PP ?                                                          
   IUNSCR =        1    unscreen: 0-lin 1-nonlin 2-no                                               
   RPACOR =    1.200    partial core radius                                                         
   POMASS =   16.000; ZVAL   =    6.000    mass and valenz                                          
   RCORE  =    1.520    outmost cutoff radius                                                       
   RWIGS  =    1.550; RWIGS  =    0.820    wigner-seitz radius (au A)                               
   ENMAX  =  400.000; ENMIN  =  300.000 eV                                                          
   ICORE  =        2    local potential                                                             
   LCOR   =        T    correct aug charges                                                         
   LPAW   =        T    paw PP                                                                      
   EAUG   =  605.392                                                                                
   DEXC   =    0.000                                                                                
   RMAX   =    1.553    core radius for proj-oper                                                   
   RAUG   =    1.300    factor for augmentation sphere                                              
   RDEP   =    1.550    radius for radial grids                                                     
   RDEPT  =    1.329    core radius for aug-charge                                                  
                                                                                                    
   Atomic configuration                                                                             
    4 entries                                                                                       
     n  l   j            E        occ.                                                              
     1  0  0.50      -514.6923   2.0000                                                             
     2  0  0.50       -23.9615   2.0000                                                             
     2  1  0.50        -9.0305   4.0000                                                             
     3  2  1.50        -9.5241   0.0000                                                             
   Description                                                                                      
     l       E           TYP  RCUT    TYP  RCUT                                                     
     0    -23.9615318     23  1.200                                                                 
     0     -9.5240782     23  1.200                                                                 
     1     -9.0304911     23  1.520                                                                 
     1      8.1634956     23  1.520                                                                 
     2     -9.5240782      7  1.500                                                                 
  local pseudopotential read in
  partial core-charges read in
  partial kinetic energy density read in
  kinetic energy density of atom read in
  atomic valenz-charges read in
  non local Contribution for L=           0  read in
    real space projection operators read in
  non local Contribution for L=           0  read in
    real space projection operators read in
  non local Contribution for L=           1  read in
    real space projection operators read in
  non local Contribution for L=           1  read in
    real space projection operators read in
    PAW grid and wavefunctions read in

   number of l-projection  operators is LMAX  =           4
   number of lm-projection operators is LMMAX =           8

 Optimization of the real space projectors (new method)

 maximal supplied QI-value         = 19.84
 optimisation between [QCUT,QGAM] = [ 10.12, 20.44] = [ 28.68,116.96] Ry 
 Optimized for a Real-space Cutoff    1.23 Angstroem

   l    n(q)    QCUT    max X(q) W(low)/X(q) W(high)/X(q)  e(spline) 
   0      7    10.119   176.870    0.49E-04    0.18E-03    0.39E-07
   0      7    10.119   105.762    0.46E-04    0.18E-03    0.38E-07
   1      7    10.119    55.370    0.30E-03    0.37E-03    0.12E-06
   1      7    10.119    20.208    0.27E-03    0.35E-03    0.11E-06
 Optimization of the real space projectors (new method)

 maximal supplied QI-value         = 24.76
 optimisation between [QCUT,QGAM] = [ 10.15, 20.30] = [ 28.85,115.39] Ry 
 Optimized for a Real-space Cutoff    1.38 Angstroem

   l    n(q)    QCUT    max X(q) W(low)/X(q) W(high)/X(q)  e(spline) 
   0      8    10.150    20.381    0.22E-03    0.32E-03    0.29E-06
   0      8    10.150    15.268    0.23E-03    0.35E-03    0.30E-06
   1      8    10.150     5.964    0.46E-03    0.53E-03    0.21E-06
   1      8    10.150     5.382    0.38E-03    0.45E-03    0.19E-06
  PAW_PBE Al 04Jan2001                  :
 energy of atom  1       EATOM=  -53.5387
 kinetic energy error for atom=    0.0005 (will be added to EATOM!!)
  PAW_PBE O 08Apr2002                   :
 energy of atom  2       EATOM= -432.3788
 kinetic energy error for atom=    0.1156 (will be added to EATOM!!)


 POSCAR:    Al  O
  positions in direct lattice
  No initial velocities read in
 exchange correlation table for  LEXCH =        8
   RHO(1)=    0.500       N(1)  =     2000
   RHO(2)=  100.500       N(2)  =     4000



--------------------------------------------------------------------------------------------------------


 ion  position               nearest neighbor table
   1  0.126  0.016  0.390-  70 1.87  52 1.89  46 1.93  77 1.97  37 1.98  33 2.03   5 2.68  18 2.88
                            20 2.92  31 3.14  29 3.14  10 3.19   9 3.19   6 3.21
   2  0.126  0.516  0.390-  69 1.87  51 1.89  45 1.93  78 1.97  38 1.98  34 2.03   6 2.68  17 2.88
                            19 2.92  32 3.14  30 3.14   9 3.19  10 3.19   5 3.21
   3  0.626  0.016  0.390-  72 1.87  50 1.89  48 1.93  79 1.97  39 1.98  35 2.03   7 2.68  20 2.88
                            18 2.92  29 3.14  31 3.14  12 3.19  11 3.19   8 3.21
   4  0.626  0.516  0.390-  71 1.87  49 1.89  47 1.93  80 1.97  40 1.98  36 2.03   8 2.68  19 2.88
                            17 2.92  30 3.14  32 3.14  11 3.19  12 3.19   7 3.21
   5  0.126  0.234  0.610-  69 1.87  55 1.89  41 1.93  77 1.97  33 1.98  37 2.03   1 2.68  21 2.88
                            23 2.92  27 3.14  25 3.14  13 3.19  14 3.19   2 3.21
   6  0.126  0.734  0.610-  70 1.87  56 1.89  42 1.93  78 1.97  34 1.98  38 2.03   2 2.68  22 2.88
                            24 2.92  28 3.14  26 3.14  14 3.19  13 3.19   1 3.21
   7  0.626  0.234  0.610-  71 1.87  53 1.89  43 1.93  79 1.97  35 1.98  39 2.03   3 2.68  23 2.88
                            21 2.92  25 3.14  27 3.14  15 3.19  16 3.19   4 3.21
   8  0.626  0.734  0.610-  72 1.87  54 1.89  44 1.93  80 1.97  36 1.98  40 2.03   4 2.68  24 2.88
                            22 2.92  26 3.14  28 3.14  16 3.19  15 3.19   3 3.21
   9  0.124  0.266  0.110-  65 1.87  57 1.89  37 1.93  75 1.97  45 1.98  41 2.03  13 2.68  27 2.88
                            25 2.92  21 3.14  23 3.14   2 3.19   1 3.19  14 3.21
  10  0.124  0.766  0.110-  66 1.87  58 1.89  38 1.93  76 1.97  46 1.98  42 2.03  14 2.68  28 2.88
                            26 2.92  22 3.14  24 3.14   1 3.19   2 3.19  13 3.21
  11  0.624  0.266  0.110-  67 1.87  59 1.89  39 1.93  73 1.97  47 1.98  43 2.03  15 2.68  25 2.88
                            27 2.92  23 3.14  21 3.14   4 3.19   3 3.19  16 3.21
  12  0.624  0.766  0.110-  68 1.87  60 1.89  40 1.93  74 1.97  48 1.98  44 2.03  16 2.68  26 2.88
                            28 2.92  24 3.14  22 3.14   3 3.19   4 3.19  15 3.21
  13  0.124  0.484  0.890-  66 1.87  62 1.89  34 1.93  75 1.97  41 1.98  45 2.03   9 2.68  32 2.88
                            30 2.92  17 3.14  19 3.14   5 3.19   6 3.19  10 3.21
  14  0.124  0.984  0.890-  65 1.87  61 1.89  33 1.93  76 1.97  42 1.98  46 2.03  10 2.68  31 2.88
                            29 2.92  18 3.14  20 3.14   6 3.19   5 3.19   9 3.21
  15  0.624  0.484  0.890-  68 1.87  64 1.89  36 1.93  73 1.97  43 1.98  47 2.03  11 2.68  30 2.88
                            32 2.92  19 3.14  17 3.14   7 3.19   8 3.19  12 3.21
  16  0.624  0.984  0.890-  67 1.87  63 1.89  35 1.93  74 1.97  44 1.98  48 2.03  12 2.68  29 2.88
                            31 2.92  20 3.14  18 3.14   8 3.19   7 3.19  11 3.21
  17  0.374  0.484  0.610-  78 1.87  36 1.89  62 1.93  69 1.97  53 1.98  49 2.03  21 2.68   2 2.88
                             4 2.92  13 3.14  15 3.14  25 3.19  26 3.19  22 3.21
  18  0.374  0.984  0.610-  77 1.87  35 1.89  61 1.93  70 1.97  54 1.98  50 2.03  22 2.68   1 2.88
                             3 2.92  14 3.14  16 3.14  26 3.19  25 3.19  21 3.21
  19  0.874  0.484  0.610-  80 1.87  34 1.89  64 1.93  71 1.97  55 1.98  51 2.03  23 2.68   4 2.88
                             2 2.92  15 3.14  13 3.14  27 3.19  28 3.19  24 3.21
  20  0.874  0.984  0.610-  79 1.87  33 1.89  63 1.93  72 1.97  56 1.98  52 2.03  24 2.68   3 2.88
                             1 2.92  16 3.14  14 3.14  28 3.19  27 3.19  23 3.21
  21  0.374  0.266  0.390-  77 1.87  39 1.89  57 1.93  69 1.97  49 1.98  53 2.03  17 2.68   5 2.88
                             7 2.92   9 3.14  11 3.14  30 3.19  29 3.19  18 3.21
  22  0.374  0.766  0.390-  78 1.87  40 1.89  58 1.93  70 1.97  50 1.98  54 2.03  18 2.68   6 2.88
                             8 2.92  10 3.14  12 3.14  29 3.19  30 3.19  17 3.21
  23  0.874  0.266  0.390-  79 1.87  37 1.89  59 1.93  71 1.97  51 1.98  55 2.03  19 2.68   7 2.88
                             5 2.92  11 3.14   9 3.14  32 3.19  31 3.19  20 3.21
  24  0.874  0.766  0.390-  80 1.87  38 1.89  60 1.93  72 1.97  52 1.98  56 2.03  20 2.68   8 2.88
                             6 2.92  12 3.14  10 3.14  31 3.19  32 3.19  19 3.21
  25  0.376  0.234  0.890-  73 1.87  41 1.89  53 1.93  67 1.97  61 1.98  57 2.03  29 2.68  11 2.88
                             9 2.92   7 3.14   5 3.14  17 3.19  18 3.19  30 3.21
  26  0.376  0.734  0.890-  74 1.87  42 1.89  54 1.93  68 1.97  62 1.98  58 2.03  30 2.68  12 2.88
                            10 2.92   8 3.14   6 3.14  18 3.19  17 3.19  29 3.21
  27  0.876  0.234  0.890-  75 1.87  43 1.89  55 1.93  65 1.97  63 1.98  59 2.03  31 2.68   9 2.88
                            11 2.92   5 3.14   7 3.14  19 3.19  20 3.19  32 3.21
  28  0.876  0.734  0.890-  76 1.87  44 1.89  56 1.93  66 1.97  64 1.98  60 2.03  32 2.68  10 2.88
                            12 2.92   6 3.14   8 3.14  20 3.19  19 3.19  31 3.21
  29  0.376  0.016  0.110-  74 1.87  46 1.89  50 1.93  67 1.97  57 1.98  61 2.03  25 2.68  16 2.88
                            14 2.92   3 3.14   1 3.14  22 3.19  21 3.19  26 3.21
  30  0.376  0.516  0.110-  73 1.87  45 1.89  49 1.93  68 1.97  58 1.98  62 2.03  26 2.68  15 2.88
                            13 2.92   4 3.14   2 3.14  22 3.19  21 3.19  25 3.21
  31  0.876  0.016  0.110-  76 1.87  48 1.89  52 1.93  65 1.97  59 1.98  63 2.03  27 2.68  14 2.88
                            16 2.92   1 3.14   3 3.14  24 3.19  23 3.19  28 3.21
  32  0.876  0.516  0.110-  75 1.87  47 1.89  51 1.93  66 1.97  60 1.98  64 2.03  28 2.68  13 2.88
                            15 2.92   2 3.14   4 3.14  24 3.19  23 3.19  27 3.21
  33  0.054  0.051  0.654-  20 1.89  14 1.93   5 1.98   1 2.03
  34  0.054  0.551  0.654-  19 1.89  13 1.93   6 1.98   2 2.03
  35  0.554  0.051  0.654-  18 1.89  16 1.93   7 1.98   3 2.03
  36  0.554  0.551  0.654-  17 1.89  15 1.93   8 1.98   4 2.03
  37  0.054  0.199  0.346-  23 1.89   9 1.93   1 1.98   5 2.03
  38  0.054  0.699  0.346-  24 1.89  10 1.93   2 1.98   6 2.03
  39  0.554  0.199  0.346-  21 1.89  11 1.93   3 1.98   7 2.03
  40  0.554  0.699  0.346-  22 1.89  12 1.93   4 1.98   8 2.03
  41  0.196  0.301  0.846-  25 1.89   5 1.93  13 1.98   9 2.03
  42  0.196  0.801  0.846-  26 1.89   6 1.93  14 1.98  10 2.03
  43  0.696  0.301  0.846-  27 1.89   7 1.93  15 1.98  11 2.03
  44  0.696  0.801  0.846-  28 1.89   8 1.93  16 1.98  12 2.03
  45  0.196  0.449  0.154-  30 1.89   2 1.93   9 1.98  13 2.03
  46  0.196  0.949  0.154-  29 1.89   1 1.93  10 1.98  14 2.03
  47  0.696  0.449  0.154-  32 1.89   4 1.93  11 1.98  15 2.03
  48  0.696  0.949  0.154-  31 1.89   3 1.93  12 1.98  16 2.03
  49  0.446  0.449  0.346-   4 1.89  30 1.93  21 1.98  17 2.03
  50  0.446  0.949  0.346-   3 1.89  29 1.93  22 1.98  18 2.03
  51  0.946  0.449  0.346-   2 1.89  32 1.93  23 1.98  19 2.03
  52  0.946  0.949  0.346-   1 1.89  31 1.93  24 1.98  20 2.03
  53  0.446  0.301  0.654-   7 1.89  25 1.93  17 1.98  21 2.03
  54  0.446  0.801  0.654-   8 1.89  26 1.93  18 1.98  22 2.03
  55  0.946  0.301  0.654-   5 1.89  27 1.93  19 1.98  23 2.03
  56  0.946  0.801  0.654-   6 1.89  28 1.93  20 1.98  24 2.03
  57  0.304  0.199  0.154-   9 1.89  21 1.93  29 1.98  25 2.03
  58  0.304  0.699  0.154-  10 1.89  22 1.93  30 1.98  26 2.03
  59  0.804  0.199  0.154-  11 1.89  23 1.93  31 1.98  27 2.03
  60  0.804  0.699  0.154-  12 1.89  24 1.93  32 1.98  28 2.03
  61  0.304  0.051  0.846-  14 1.89  18 1.93  25 1.98  29 2.03
  62  0.304  0.551  0.846-  13 1.89  17 1.93  26 1.98  30 2.03
  63  0.804  0.051  0.846-  16 1.89  20 1.93  27 1.98  31 2.03
  64  0.804  0.551  0.846-  15 1.89  19 1.93  28 1.98  32 2.03
  65  0.025  0.125  0.000-  14 1.87   9 1.87  27 1.97  31 1.97
  66  0.025  0.625  0.000-  13 1.87  10 1.87  28 1.97  32 1.97
  67  0.525  0.125  0.000-  16 1.87  11 1.87  25 1.97  29 1.97
  68  0.525  0.625  0.000-  15 1.87  12 1.87  26 1.97  30 1.97
  69  0.225  0.375  0.500-   5 1.87   2 1.87  17 1.97  21 1.97
  70  0.225  0.875  0.500-   6 1.87   1 1.87  18 1.97  22 1.97
  71  0.725  0.375  0.500-   7 1.87   4 1.87  19 1.97  23 1.97
  72  0.725  0.875  0.500-   8 1.87   3 1.87  20 1.97  24 1.97
  73  0.475  0.375  0.000-  25 1.87  30 1.87  15 1.97  11 1.97
  74  0.475  0.875  0.000-  29 1.87  26 1.87  16 1.97  12 1.97
  75  0.975  0.375  0.000-  27 1.87  32 1.87  13 1.97   9 1.97
  76  0.975  0.875  0.000-  31 1.87  28 1.87  14 1.97  10 1.97
  77  0.275  0.125  0.500-  18 1.87  21 1.87   5 1.97   1 1.97
  78  0.275  0.625  0.500-  17 1.87  22 1.87   6 1.97   2 1.97
  79  0.775  0.125  0.500-  20 1.87  23 1.87   7 1.97   3 1.97
  80  0.775  0.625  0.500-  19 1.87  24 1.87   8 1.97   4 1.97

  LATTYP: Found a simple orthorhombic cell.
 ALAT       =     7.0932091656
 B/A-ratio  =     1.3681458986
 C/A-ratio  =     1.4070268484
  
  Lattice vectors:
  
 A1 = (   0.0000000000,   0.0000000000,   7.0932091656)
 A2 = (   9.7045450276,   0.0000000000,   0.0000000000)
 A3 = (   0.0000000000,   9.9803357375,   0.0000000000)


Analysis of symmetry for initial positions (statically):
=====================================================================
 Subroutine PRICEL returns following result:
 
  LATTYP: Found a simple orthorhombic cell.
 ALAT       =     4.8522725141
 B/A-ratio  =     1.0284187391
 C/A-ratio  =     1.4618323981
  
  Lattice vectors:
  
 A1 = (   4.8522725141,   0.0000000000,   0.0000000000)
 A2 = (   0.0000000000,   4.9901679806,   0.0000000000)
 A3 = (   0.0000000000,   0.0000000000,   7.0932091656)
 
   4 primitive cells build up your supercell.
 

 Routine SETGRP: Setting up the symmetry group for a 
 simple orthorhombic supercell.


 Subroutine GETGRP returns: Found  8 space group operations
 (whereof  2 operations were pure point group operations)
 out of a pool of  8 trial point group operations.


The static configuration has the point symmetry S_2 .
 The point group associated with its full space group is D_2h.


Analysis of symmetry for dynamics (positions and initial velocities):
=====================================================================
 Subroutine PRICEL returns following result:
 
  LATTYP: Found a simple orthorhombic cell.
 ALAT       =     4.8522725141
 B/A-ratio  =     1.0284187391
 C/A-ratio  =     1.4618323981
  
  Lattice vectors:
  
 A1 = (   4.8522725141,   0.0000000000,   0.0000000000)
 A2 = (   0.0000000000,   4.9901679806,   0.0000000000)
 A3 = (   0.0000000000,   0.0000000000,   7.0932091656)
 
   4 primitive cells build up your supercell.
 

 Routine SETGRP: Setting up the symmetry group for a 
 simple orthorhombic supercell.


 Subroutine GETGRP returns: Found  8 space group operations
 (whereof  2 operations were pure point group operations)
 out of a pool of  8 trial point group operations.


The dynamic configuration has the point symmetry S_2 .
 The point group associated with its full space group is D_2h.


Analysis of constrained symmetry for selective dynamics:
=====================================================================
 Subroutine PRICEL returns following result:
 
  LATTYP: Found a simple orthorhombic cell.
 ALAT       =     4.8522725141
 B/A-ratio  =     1.0284187391
 C/A-ratio  =     1.4618323981
  
  Lattice vectors:
  
 A1 = (   4.8522725141,   0.0000000000,   0.0000000000)
 A2 = (   0.0000000000,   4.9901679806,   0.0000000000)
 A3 = (   0.0000000000,   0.0000000000,   7.0932091656)
 
   4 primitive cells build up your supercell.
 

 Routine SETGRP: Setting up the symmetry group for a 
 simple orthorhombic supercell.


 Subroutine GETGRP returns: Found  8 space group operations
 (whereof  2 operations were pure point group operations)
 out of a pool of  8 trial point group operations.


The constrained configuration has the point symmetry S_2 .
 The point group associated with its full space group is D_2h.


 Subroutine INISYM returns: Found  8 space group operations
 (whereof  2 operations are pure point group operations),
 and found     4 'primitive' translations


----------------------------------------------------------------------------------------

                                     Primitive cell                                     

  volume of cell :     171.7525

  direct lattice vectors                    reciprocal lattice vectors
     4.852272514  0.000000000  0.000000000     0.206089002  0.000000000  0.000000000
     0.000000000  4.990167981  0.000000000     0.000000000  0.200394056  0.000000000
     0.000000000  0.000000000  7.093209166     0.000000000  0.000000000  0.140979911

  length of vectors
     4.852272514  4.990167981  7.093209166     0.206089002  0.200394056  0.140979911

  position of ions in fractional coordinates (direct lattice)
     0.252301010  0.031394432  0.389988368
     0.252301010  0.468605564  0.610011602
     0.247698990  0.531394421  0.110011610
     0.247698990  0.968605501  0.889988398
     0.747698961  0.968605501  0.610011602
     0.747698961  0.531394421  0.389988368
     0.752301039  0.468605564  0.889988398
     0.752301039  0.031394432  0.110011610
     0.107072531  0.102390997  0.654148561
     0.107072531  0.397608992  0.345851469
     0.392927454  0.602391023  0.845851439
     0.392927454  0.897608899  0.154148517
     0.892927514  0.897608899  0.345851469
     0.892927514  0.602391023  0.654148561
     0.607072486  0.397608992  0.154148517
     0.607072486  0.102390997  0.845851439
     0.050188047  0.249999994  0.000000000
     0.449811960  0.749999961  0.500000000
     0.949811900  0.749999961  0.000000000
     0.550188099  0.249999994  0.500000000

  ion indices of the primitive-cell ions
   primitive index   ion index
                 1           1
                 2           5
                 3          10
                 4          14
                 5          18
                 6          22
                 7          27
                 8          31
                 9          33
                10          37
                11          42
                12          46
                13          52
                14          56
                15          57
                16          61
                17          65
                18          70
                19          76
                20          77

----------------------------------------------------------------------------------------



 KPOINTS: k-points                                

Automatic generation of k-mesh.
 Grid dimensions read from file:
 generate k-points for:    4    4    4

 Generating k-lattice:

  Cartesian coordinates                     Fractional coordinates (reciprocal lattice)
     0.025761125  0.000000000  0.000000000     0.250000000  0.000000000  0.000000000
     0.000000000  0.025049258  0.000000000     0.000000000  0.250000000  0.000000000
     0.000000000  0.000000000  0.035244978     0.000000000  0.000000000  0.250000000

  Length of vectors
     0.025761125  0.025049258  0.035244978

  Shift w.r.t. Gamma in fractional coordinates (k-lattice)
     0.500000000  0.500000000  0.500000000

 
 Subroutine IBZKPT returns following result:
 ===========================================
 
 Found      8 irreducible k-points:
 
 Following reciprocal coordinates:
            Coordinates               Weight
  0.125000  0.125000  0.125000      8.000000
  0.375000  0.125000  0.125000      8.000000
  0.125000  0.375000  0.125000      8.000000
  0.375000  0.375000  0.125000      8.000000
  0.125000  0.125000  0.375000      8.000000
  0.375000  0.125000  0.375000      8.000000
  0.125000  0.375000  0.375000      8.000000
  0.375000  0.375000  0.375000      8.000000
 
 Following cartesian coordinates:
            Coordinates               Weight
  0.012881  0.012525  0.017622      8.000000
  0.038642  0.012525  0.017622      8.000000
  0.012881  0.037574  0.017622      8.000000
  0.038642  0.037574  0.017622      8.000000
  0.012881  0.012525  0.052867      8.000000
  0.038642  0.012525  0.052867      8.000000
  0.012881  0.037574  0.052867      8.000000
  0.038642  0.037574  0.052867      8.000000
 


--------------------------------------------------------------------------------------------------------




 Dimension of arrays:
   k-points           NKPTS =      8   k-points in BZ     NKDIM =      8   number of bands    NBANDS=    233
   number of dos      NEDOS =    301   number of ions     NIONS =     80
   non local maximal  LDIM  =      4   non local SUM 2l+1 LMDIM =      8
   total plane-waves  NPLWV =  86400
   max r-space proj   IRMAX =   1436   max aug-charges    IRDMAX=   5094
   dimension x,y,z NGX =    48 NGY =   50 NGZ =   36
   dimension x,y,z NGXF=    96 NGYF=  100 NGZF=   72
   support grid    NGXF=    96 NGYF=  100 NGZF=   72
   ions per type =              32  48
   NGX,Y,Z   is equivalent  to a cutoff of   8.22,  8.33,  8.44 a.u.
   NGXF,Y,Z  is equivalent  to a cutoff of  16.45, 16.66, 16.87 a.u.

 SYSTEM =  Alumina_orthorombic_cell_under_strain   
 POSCAR =     Al  O                                

 Startparameter for this run:
   NWRITE =      2    write-flag & timer
   PREC   = normal    normal or accurate (medium, high low for compatibility)
   ISTART =      0    job   : 0-new  1-cont  2-samecut
   ICHARG =      2    charge: 1-file 2-atom 10-const
   ISPIN  =      1    spin polarized calculation?
   LNONCOLLINEAR =      F non collinear calculations
   LSORBIT =      F    spin-orbit coupling
   INIWAV =      1    electr: 0-lowe 1-rand  2-diag
   LASPH  =      F    aspherical Exc in radial PAW
 Electronic Relaxation 1
   ENCUT  =  400.0 eV  29.40 Ry    5.42 a.u.  15.83 16.28 11.57*2*pi/ulx,y,z
   ENINI  =  400.0     initial cutoff
   ENAUG  =  605.4 eV  augmentation charge cutoff
   NELM   =    100;   NELMIN=  2; NELMDL= -5     # of ELM steps 
   EDIFF  = 0.1E-05   stopping-criterion for ELM
   LREAL  =      T    real-space projection
   NLSPLINE    = F    spline interpolate recip. space projectors
   LCOMPAT=      F    compatible to vasp.4.4
   GGA_COMPAT  = T    GGA compatible to vasp.4.4-vasp.4.6
   LMAXPAW     = -100 max onsite density
   LMAXMIX     =    2 max onsite mixed and CHGCAR
   VOSKOWN=      0    Vosko Wilk Nusair interpolation
   ROPT   =   -0.00050  -0.00050
 Ionic relaxation
   EDIFFG = -.1E-02   stopping-criterion for IOM
   NSW    =      0    number of steps for IOM
   NBLOCK =      1;   KBLOCK =      1    inner block; outer block 
   IBRION =     -1    ionic relax: 0-MD 1-quasi-New 2-CG
   NFREE  =      0    steps in history (QN), initial steepest desc. (CG)
   ISIF   =      2    stress and relaxation
   IWAVPR =     10    prediction:  0-non 1-charg 2-wave 3-comb
   ISYM   =      2    0-nonsym 1-usesym 2-fastsym
   LCORR  =      T    Harris-Foulkes like correction to forces

   POTIM  = 0.5000    time-step for ionic-motion
   TEIN   =    0.0    initial temperature
   TEBEG  =    0.0;   TEEND  =   0.0 temperature during run
   SMASS  =  -3.00    Nose mass-parameter (am)
   estimated Nose-frequenzy (Omega)   =  0.10E-29 period in steps = 0.13E+47 mass=  -0.215E-26a.u.
   SCALEE = 1.0000    scale energy and forces
   NPACO  =    256;   APACO  = 10.0  distance and # of slots for P.C.
   PSTRESS=    0.0 pullay stress

  Mass of Ions in am
   POMASS =  26.98 16.00
  Ionic Valenz
   ZVAL   =   3.00  6.00
  Atomic Wigner-Seitz radii
   RWIGS  =  -1.00 -1.00
  virtual crystal weights 
   VCA    =   1.00  1.00
   NELECT =     384.0000    total number of electrons
   NUPDOWN=      -1.0000    fix difference up-down

 DOS related values:
   EMIN   =  10.00;   EMAX   =-10.00  energy-range for DOS
   EFERMI =   0.00
   ISMEAR =     1;   SIGMA  =   0.03  broadening in eV -4-tet -1-fermi 0-gaus

 Electronic relaxation 2 (details)
   IALGO  =     38    algorithm
   LDIAG  =      T    sub-space diagonalisation (order eigenvalues)
   LSUBROT=      F    optimize rotation matrix (better conditioning)
   TURBO    =      0    0=normal 1=particle mesh
   IRESTART =      0    0=no restart 2=restart with 2 vectors
   NREBOOT  =      0    no. of reboots
   NMIN     =      0    reboot dimension
   EREF     =   0.00    reference energy to select bands
   IMIX   =      4    mixing-type and parameters
     AMIX     =   0.40;   BMIX     =  1.00
     AMIX_MAG =   1.60;   BMIX_MAG =  1.00
     AMIN     =   0.10
     WC   =   100.;   INIMIX=   1;  MIXPRE=   1;  MAXMIX= -45

 Intra band minimization:
   WEIMIN = 0.0000     energy-eigenvalue tresh-hold
   EBREAK =  0.11E-08  absolut break condition
   DEPER  =   0.30     relativ break condition  

   TIME   =   0.40     timestep for ELM

  volume/ion in A,a.u.               =       8.59        57.95
  Fermi-wavevector in a.u.,A,eV,Ry     =   1.348541  2.548373 24.743055  1.818563
  Thomas-Fermi vector in A             =   2.476202

 Write flags
   LWAVE        =      T    write WAVECAR
   LDOWNSAMPLE  =      F    k-point downsampling of WAVECAR
   LCHARG       =      T    write CHGCAR
   LVTOT        =      F    write LOCPOT, total local potential
   LVHAR        =      F    write LOCPOT, Hartree potential only
   LELF         =      F    write electronic localiz. function (ELF)
   LORBIT       =      0    0 simple, 1 ext, 2 COOP (PROOUT), +10 PAW based schemes


 Dipole corrections
   LMONO  =      F    monopole corrections only (constant potential shift)
   LDIPOL =      F    correct potential (dipole corrections)
   IDIPOL =      0    1-x, 2-y, 3-z, 4-all directions 
   EPSILON=  1.0000000 bulk dielectric constant

 Exchange correlation treatment:
   GGA     =    --    GGA type
   LEXCH   =     8    internal setting for exchange type
   LIBXC   =     F    Libxc                    
   VOSKOWN =     0    Vosko Wilk Nusair interpolation
   LHFCALC =     F    Hartree Fock is set to
   LHFONE  =     F    Hartree Fock one center treatment
   AEXX    =    0.0000 exact exchange contribution

 Linear response parameters
   LEPSILON=     F    determine dielectric tensor
   LRPA    =     F    only Hartree local field effects (RPA)
   LNABLA  =     F    use nabla operator in PAW spheres
   LVEL    =     F    velocity operator in full k-point grid
   CSHIFT  =0.1000    complex shift for real part using Kramers Kronig
   OMEGAMAX=  -1.0    maximum frequency
   DEG_THRESHOLD= 0.2000000E-02 threshold for treating states as degnerate
   RTIME   =   -0.100 relaxation time in fs
  (WPLASMAI=    0.000 imaginary part of plasma frequency in eV, 0.658/RTIME)
   DFIELD  = 0.0000000 0.0000000 0.0000000 field for delta impulse in time

  Optional k-point grid parameters
   LKPOINTS_OPT  =     F    use optional k-point grid
   KPOINTS_OPT_MODE=     1    mode for optional k-point grid

 Orbital magnetization related:
   ORBITALMAG=     F  switch on orbital magnetization
   LCHIMAG   =     F  perturbation theory with respect to B field
   DQ        =  0.001000  dq finite difference perturbation B field
   LLRAUG    =     F  two centre corrections for induced B field



--------------------------------------------------------------------------------------------------------


 Static calculation
 charge density and potential will be updated during run
 non-spin polarized calculation
 Variant of blocked Davidson
 Davidson routine will perform the subspace rotation
 perform sub-space diagonalisation
    after iterative eigenvector-optimisation
 modified Broyden-mixing scheme, WC =      100.0
 initial mixing is a Kerker type mixing with AMIX =  0.4000 and BMIX =      1.0000
 Hartree-type preconditioning will be used
 using additional bands           41
 real space projection scheme for non local part
 use partial core corrections
 calculate Harris-corrections to forces   (improved forces if not selfconsistent)
 use gradient corrections 
 use of overlap-Matrix (Vanderbilt PP)
 Methfessel and Paxton  Order N= 1 SIGMA  =   0.03


--------------------------------------------------------------------------------------------------------


  energy-cutoff  :      400.00
  volume of cell :      687.01
      direct lattice vectors                 reciprocal lattice vectors
     9.704545028  0.000000000  0.000000000     0.103044501  0.000000000  0.000000000
     0.000000000  9.980335737  0.000000000     0.000000000  0.100197030  0.000000000
     0.000000000  0.000000000  7.093209166     0.000000000  0.000000000  0.140979911

  length of vectors
     9.704545028  9.980335737  7.093209166     0.103044501  0.100197030  0.140979911



 k-points in units of 2pi/SCALE and weight: k-points                                
   0.01288056  0.01252463  0.01762249       0.125
   0.03864169  0.01252463  0.01762249       0.125
   0.01288056  0.03757389  0.01762249       0.125
   0.03864169  0.03757389  0.01762249       0.125
   0.01288056  0.01252463  0.05286747       0.125
   0.03864169  0.01252463  0.05286747       0.125
   0.01288056  0.03757389  0.05286747       0.125
   0.03864169  0.03757389  0.05286747       0.125

 k-points in reciprocal lattice and weights: k-points                                
   0.12500000  0.12500000  0.12500000       0.125
   0.37500000  0.12500000  0.12500000       0.125
   0.12500000  0.37500000  0.12500000       0.125
   0.37500000  0.37500000  0.12500000       0.125
   0.12500000  0.12500000  0.37500000       0.125
   0.37500000  0.12500000  0.37500000       0.125
   0.12500000  0.37500000  0.37500000       0.125
   0.37500000  0.37500000  0.37500000       0.125

 position of ions in fractional coordinates (direct lattice) 
   0.12615050  0.01569722  0.38998837
   0.12615050  0.51569723  0.38998837
   0.62615052  0.01569722  0.38998837
   0.62615052  0.51569723  0.38998837
   0.12615050  0.23430279  0.61001160
   0.12615050  0.73430277  0.61001160
   0.62615052  0.23430279  0.61001160
   0.62615052  0.73430277  0.61001160
   0.12384950  0.26569723  0.11001161
   0.12384950  0.76569723  0.11001161
   0.62384948  0.26569723  0.11001161
   0.62384948  0.76569723  0.11001161
   0.12384950  0.48430277  0.88998840
   0.12384950  0.98430277  0.88998840
   0.62384948  0.48430277  0.88998840
   0.62384948  0.98430277  0.88998840
   0.37384948  0.48430277  0.61001160
   0.37384948  0.98430277  0.61001160
   0.87384948  0.48430277  0.61001160
   0.87384948  0.98430277  0.61001160
   0.37384948  0.26569723  0.38998837
   0.37384948  0.76569723  0.38998837
   0.87384948  0.26569723  0.38998837
   0.87384948  0.76569723  0.38998837
   0.37615052  0.23430279  0.88998840
   0.37615052  0.73430277  0.88998840
   0.87615052  0.23430279  0.88998840
   0.87615052  0.73430277  0.88998840
   0.37615052  0.01569722  0.11001161
   0.37615052  0.51569723  0.11001161
   0.87615052  0.01569722  0.11001161
   0.87615052  0.51569723  0.11001161
   0.05353627  0.05119550  0.65414856
   0.05353627  0.55119553  0.65414856
   0.55353624  0.05119550  0.65414856
   0.55353624  0.55119553  0.65414856
   0.05353627  0.19880450  0.34585147
   0.05353627  0.69880447  0.34585147
   0.55353624  0.19880450  0.34585147
   0.55353624  0.69880447  0.34585147
   0.19646373  0.30119550  0.84585144
   0.19646373  0.80119553  0.84585144
   0.69646370  0.30119550  0.84585144
   0.69646370  0.80119553  0.84585144
   0.19646373  0.44880450  0.15414852
   0.19646373  0.94880447  0.15414852
   0.69646370  0.44880450  0.15414852
   0.69646370  0.94880447  0.15414852
   0.44646376  0.44880450  0.34585147
   0.44646376  0.94880447  0.34585147
   0.94646376  0.44880450  0.34585147
   0.94646376  0.94880447  0.34585147
   0.44646376  0.30119550  0.65414856
   0.44646376  0.80119553  0.65414856
   0.94646376  0.30119550  0.65414856
   0.94646376  0.80119553  0.65414856
   0.30353624  0.19880450  0.15414852
   0.30353624  0.69880447  0.15414852
   0.80353624  0.19880450  0.15414852
   0.80353624  0.69880447  0.15414852
   0.30353624  0.05119550  0.84585144
   0.30353624  0.55119553  0.84585144
   0.80353624  0.05119550  0.84585144
   0.80353624  0.55119553  0.84585144
   0.02509402  0.12500000  0.00000000
   0.02509402  0.62500000  0.00000000
   0.52509405  0.12500000  0.00000000
   0.52509405  0.62500000  0.00000000
   0.22490598  0.37500000  0.50000000
   0.22490598  0.87500000  0.50000000
   0.72490601  0.37500000  0.50000000
   0.72490601  0.87500000  0.50000000
   0.47490595  0.37500000  0.00000000
   0.47490595  0.87500000  0.00000000
   0.97490595  0.37500000  0.00000000
   0.97490595  0.87500000  0.00000000
   0.27509405  0.12500000  0.50000000
   0.27509405  0.62500000  0.50000000
   0.77509405  0.12500000  0.50000000
   0.77509405  0.62500000  0.50000000

 position of ions in cartesian coordinates  (Angst):
   1.22423325  0.15666349  2.76626907
   1.22423325  5.14683147  2.76626907
   6.07650591  0.15666349  2.76626907
   6.07650591  5.14683147  2.76626907
   1.22423325  2.33842048  4.32693989
   1.22423325  7.32858820  4.32693989
   6.07650591  2.33842048  4.32693989
   6.07650591  7.32858820  4.32693989
   1.20190300  2.65174754  0.78033536
   1.20190300  7.64191540  0.78033536
   6.05417537  2.65174754  0.78033536
   6.05417537  7.64191540  0.78033536
   1.20190300  4.83350427  6.31287386
   1.20190300  9.82367214  6.31287386
   6.05417537  4.83350427  6.31287386
   6.05417537  9.82367214  6.31287386
   3.62803912  4.83350427  4.32693989
   3.62803912  9.82367214  4.32693989
   8.48031163  4.83350427  4.32693989
   8.48031163  9.82367214  4.32693989
   3.62803912  2.65174754  2.76626907
   3.62803912  7.64191540  2.76626907
   8.48031163  2.65174754  2.76626907
   8.48031163  7.64191540  2.76626907
   3.65036966  2.33842048  6.31287386
   3.65036966  7.32858820  6.31287386
   8.50264217  2.33842048  6.31287386
   8.50264217  7.32858820  6.31287386
   3.65036966  0.15666349  0.78033536
   3.65036966  5.14683147  0.78033536
   8.50264217  0.15666349  0.78033536
   8.50264217  5.14683147  0.78033536
   0.51954510  0.51094827  4.64001257
   0.51954510  5.50111644  4.64001257
   5.37181740  0.51094827  4.64001257
   5.37181740  5.50111644  4.64001257
   0.51954510  1.98413566  2.45319681
   0.51954510  6.97430323  2.45319681
   5.37181740  1.98413566  2.45319681
   5.37181740  6.97430323  2.45319681
   1.90659109  3.00603221  5.99980118
   1.90659109  7.99620037  5.99980118
   6.75886331  3.00603221  5.99980118
   6.75886331  7.99620037  5.99980118
   1.90659109  4.47921960  1.09340767
   1.90659109  9.46938717  1.09340767
   6.75886331  4.47921960  1.09340767
   6.75886331  9.46938717  1.09340767
   4.33272763  4.47921960  2.45319681
   4.33272763  9.46938717  2.45319681
   9.18500015  4.47921960  2.45319681
   9.18500015  9.46938717  2.45319681
   4.33272763  3.00603221  4.64001257
   4.33272763  7.99620037  4.64001257
   9.18500015  3.00603221  4.64001257
   9.18500015  7.99620037  4.64001257
   2.94568114  1.98413566  1.09340767
   2.94568114  6.97430323  1.09340767
   7.79795365  1.98413566  1.09340767
   7.79795365  6.97430323  1.09340767
   2.94568114  0.51094827  5.99980118
   2.94568114  5.50111644  5.99980118
   7.79795365  0.51094827  5.99980118
   7.79795365  5.50111644  5.99980118
   0.24352608  1.24754197  0.00000000
   0.24352608  6.23770984  0.00000000
   5.09579885  1.24754197  0.00000000
   5.09579885  6.23770984  0.00000000
   2.18261021  3.74262590  3.54660458
   2.18261021  8.73279377  3.54660458
   7.03488301  3.74262590  3.54660458
   7.03488301  8.73279377  3.54660458
   4.60874618  3.74262590  0.00000000
   4.60874618  8.73279377  0.00000000
   9.46101869  3.74262590  0.00000000
   9.46101869  8.73279377  0.00000000
   2.66966259  1.24754197  3.54660458
   2.66966259  6.23770984  3.54660458
   7.52193511  1.24754197  3.54660458
   7.52193511  6.23770984  3.54660458



--------------------------------------------------------------------------------------------------------


 k-point   1 :   0.1250 0.1250 0.1250  plane waves:   12489
 k-point   2 :   0.3750 0.1250 0.1250  plane waves:   12479
 k-point   3 :   0.1250 0.3750 0.1250  plane waves:   12509
 k-point   4 :   0.3750 0.3750 0.1250  plane waves:   12478
 k-point   5 :   0.1250 0.1250 0.3750  plane waves:   12468
 k-point   6 :   0.3750 0.1250 0.3750  plane waves:   12488
 k-point   7 :   0.1250 0.3750 0.3750  plane waves:   12456
 k-point   8 :   0.3750 0.3750 0.3750  plane waves:   12475

 maximum and minimum number of plane-waves per node :     12509    12456

 maximum number of plane-waves:     12509
 maximum index in each direction: 
   IXMAX=   15   IYMAX=   16   IZMAX=   11
   IXMIN=  -16   IYMIN=  -16   IZMIN=  -11


 serial   3D FFT for wavefunctions
 parallel 3D FFT for charge:
    minimum data exchange during FFTs selected (reduces bandwidth)


 total amount of memory used by VASP MPI-rank0   498138. kBytes
=======================================================================

   base      :      30000. kBytes
   nonlr-proj:       8585. kBytes
   fftplans  :      24184. kBytes
   grid      :      42969. kBytes
   one-center:        245. kBytes
   wavefun   :     392155. kBytes

     INWAV:  cpu time      0.0001: real time      0.0003
 Broyden mixing: mesh for mixing (old mesh)
   NGX = 31   NGY = 33   NGZ = 23
  (NGX  = 96   NGY  =100   NGZ  = 72)
  gives a total of  23529 points

 initial charge density was supplied:
 charge density of overlapping atoms calculated
 number of electron     384.0000000 magnetization 
 keeping initial charge density in first step


--------------------------------------------------------------------------------------------------------


 Maximum index for non-local projection operator         1357
 Maximum index for augmentation-charges         4760 (set IRDMAX)


--------------------------------------------------------------------------------------------------------


 First call to EWALD:  gamma=   0.201
 Maximum number of real-space cells 3x 2x 3
 Maximum number of reciprocal cells 3x 3x 2

    FEWALD:  cpu time      0.0728: real time      0.0730


--------------------------------------- Iteration      1(   1)  ---------------------------------------


    POTLOK:  cpu time      0.3238: real time      0.3252
    SETDIJ:  cpu time      0.0786: real time      0.0790
     EDDAV:  cpu time     39.4367: real time     39.7411
       DOS:  cpu time      0.0024: real time      0.0026
    --------------------------------------------
      LOOP:  cpu time     39.8416: real time     40.1478

 eigenvalue-minimisations  :  3728
 total energy-change (2. order) : 0.1864121E+04  (-0.1759806E+05)
 number of electron     384.0000000 magnetization 
 augmentation part      384.0000000 magnetization 

 Free energy of the ion-electron system (eV)
  ---------------------------------------------------
  alpha Z        PSCENC =       601.31638087
  Ewald energy   TEWEN  =    -19292.71523510
  -Hartree energ DENC   =     -5006.71214862
  -exchange      EXHF   =         0.00000000
  -V(xc)+E(xc)   XCENC  =       528.56946409
  PAW double counting   =     18752.77991877   -17816.57094691
  entropy T*S    EENTRO =        -0.00259223
  eigenvalues    EBANDS =      1635.60226577
  atomic energy  EATOM  =     22461.85434800
  Solvation  Ediel_sol  =         0.00000000
  ---------------------------------------------------
  free energy    TOTEN  =      1864.12145463 eV

  energy without entropy =     1864.12404686  energy(sigma->0) =     1864.12231871


--------------------------------------------------------------------------------------------------------




--------------------------------------- Iteration      1(   2)  ---------------------------------------


     EDDAV:  cpu time     44.8141: real time     45.2220
       DOS:  cpu time      0.0022: real time      0.0023
    --------------------------------------------
      LOOP:  cpu time     44.8162: real time     45.2244

 eigenvalue-minimisations  :  4424
 total energy-change (2. order) :-0.2388607E+04  (-0.2332017E+04)
 number of electron     384.0000000 magnetization 
 augmentation part      384.0000000 magnetization 

 Free energy of the ion-electron system (eV)
  ---------------------------------------------------
  alpha Z        PSCENC =       601.31638087
  Ewald energy   TEWEN  =    -19292.71523510
  -Hartree energ DENC   =     -5006.71214862
  -exchange      EXHF   =         0.00000000
  -V(xc)+E(xc)   XCENC  =       528.56946409
  PAW double counting   =     18752.77991877   -17816.57094691
  entropy T*S    EENTRO =         0.00018843
  eigenvalues    EBANDS =      -753.00706267
  atomic energy  EATOM  =     22461.85434800
  Solvation  Ediel_sol  =         0.00000000
  ---------------------------------------------------
  free energy    TOTEN  =      -524.48509315 eV

  energy without entropy =     -524.48528158  energy(sigma->0) =     -524.48515596


--------------------------------------------------------------------------------------------------------




--------------------------------------- Iteration      1(   3)  ---------------------------------------


     EDDAV:  cpu time     44.0606: real time     44.4733
       DOS:  cpu time      0.0023: real time      0.0025
    --------------------------------------------
      LOOP:  cpu time     44.0629: real time     44.4758

 eigenvalue-minimisations  :  4336
 total energy-change (2. order) :-0.1295795E+03  (-0.1289510E+03)
 number of electron     384.0000000 magnetization 
 augmentation part      384.0000000 magnetization 

 Free energy of the ion-electron system (eV)
  ---------------------------------------------------
  alpha Z        PSCENC =       601.31638087
  Ewald energy   TEWEN  =    -19292.71523510
  -Hartree energ DENC   =     -5006.71214862
  -exchange      EXHF   =         0.00000000
  -V(xc)+E(xc)   XCENC  =       528.56946409
  PAW double counting   =     18752.77991877   -17816.57094691
  entropy T*S    EENTRO =         0.00207685
  eigenvalues    EBANDS =      -882.58841965
  atomic energy  EATOM  =     22461.85434800
  Solvation  Ediel_sol  =         0.00000000
  ---------------------------------------------------
  free energy    TOTEN  =      -654.06456171 eV

  energy without entropy =     -654.06663856  energy(sigma->0) =     -654.06525399


--------------------------------------------------------------------------------------------------------




--------------------------------------- Iteration      1(   4)  ---------------------------------------


     EDDAV:  cpu time     44.1616: real time     44.4969
       DOS:  cpu time      0.0024: real time      0.0026
    --------------------------------------------
      LOOP:  cpu time     44.1640: real time     44.4995

 eigenvalue-minimisations  :  4344
 total energy-change (2. order) :-0.1586353E+01  (-0.1580244E+01)
 number of electron     384.0000000 magnetization 
 augmentation part      384.0000000 magnetization 

 Free energy of the ion-electron system (eV)
  ---------------------------------------------------
  alpha Z        PSCENC =       601.31638087
  Ewald energy   TEWEN  =    -19292.71523510
  -Hartree energ DENC   =     -5006.71214862
  -exchange      EXHF   =         0.00000000
  -V(xc)+E(xc)   XCENC  =       528.56946409
  PAW double counting   =     18752.77991877   -17816.57094691
  entropy T*S    EENTRO =         0.00211894
  eigenvalues    EBANDS =      -884.17481477
  atomic energy  EATOM  =     22461.85434800
  Solvation  Ediel_sol  =         0.00000000
  ---------------------------------------------------
  free energy    TOTEN  =      -655.65091474 eV

  energy without entropy =     -655.65303367  energy(sigma->0) =     -655.65162105


--------------------------------------------------------------------------------------------------------




--------------------------------------- Iteration      1(   5)  ---------------------------------------


     EDDAV:  cpu time     44.0123: real time     44.4348
       DOS:  cpu time      0.0024: real time      0.0025
    CHARGE:  cpu time      1.5036: real time      1.5142
    MIXING:  cpu time      0.0122: real time      0.0122
    --------------------------------------------
      LOOP:  cpu time     45.5305: real time     45.9638

 eigenvalue-minimisations  :  4336
 total energy-change (2. order) :-0.3139815E-01  (-0.3134108E-01)
 number of electron     384.0001892 magnetization 
 augmentation part       37.1075598 magnetization 

 Broyden mixing:
  rms(total) = 0.48319E+01    rms(broyden)= 0.48299E+01
  rms(prec ) = 0.63690E+01
  weight for this iteration     100.00

 Free energy of the ion-electron system (eV)
  ---------------------------------------------------
  alpha Z        PSCENC =       601.31638087
  Ewald energy   TEWEN  =    -19292.71523510
  -Hartree energ DENC   =     -5006.71214862
  -exchange      EXHF   =         0.00000000
  -V(xc)+E(xc)   XCENC  =       528.56946409
  PAW double counting   =     18752.77991877   -17816.57094691
  entropy T*S    EENTRO =         0.00212014
  eigenvalues    EBANDS =      -884.20621412
  atomic energy  EATOM  =     22461.85434800
  Solvation  Ediel_sol  =         0.00000000
  ---------------------------------------------------
  free energy    TOTEN  =      -655.68231289 eV

  energy without entropy =     -655.68443303  energy(sigma->0) =     -655.68301960


--------------------------------------------------------------------------------------------------------




--------------------------------------- Iteration      1(   6)  ---------------------------------------


    POTLOK:  cpu time      0.3233: real time      0.3252
    SETDIJ:  cpu time      0.0782: real time      0.0785
     EDDAV:  cpu time     42.6584: real time     42.9891
       DOS:  cpu time      0.0023: real time      0.0025
    CHARGE:  cpu time      1.4968: real time      1.5055
    MIXING:  cpu time      0.0118: real time      0.0119
    --------------------------------------------
      LOOP:  cpu time     44.5709: real time     44.9128

 eigenvalue-minimisations  :  4128
 total energy-change (2. order) : 0.6357622E+02  (-0.2804785E+02)
 number of electron     384.0001601 magnetization 
 augmentation part       31.2952526 magnetization 

 Broyden mixing:
  rms(total) = 0.16847E+01    rms(broyden)= 0.16820E+01
  rms(prec ) = 0.18738E+01
  weight for this iteration     100.00

 eigenvalues of (default mixing * dielectric matrix)
  average eigenvalue GAMMA=   0.9468
  0.9468

 Free energy of the ion-electron system (eV)
  ---------------------------------------------------
  alpha Z        PSCENC =       601.31638087
  Ewald energy   TEWEN  =    -19292.71523510
  -Hartree energ DENC   =     -5753.30005523
  -exchange      EXHF   =         0.00000000
  -V(xc)+E(xc)   XCENC  =       581.03344172
  PAW double counting   =     23975.80215405   -23053.55065635
  entropy T*S    EENTRO =         0.00067081
  eigenvalues    EBANDS =      -112.54714439
  atomic energy  EATOM  =     22461.85434800
  Solvation  Ediel_sol  =         0.00000000
  ---------------------------------------------------
  free energy    TOTEN  =      -592.10609562 eV

  energy without entropy =     -592.10676643  energy(sigma->0) =     -592.10631922


--------------------------------------------------------------------------------------------------------




--------------------------------------- Iteration      1(   7)  ---------------------------------------


    POTLOK:  cpu time      0.3233: real time      0.3250
    SETDIJ:  cpu time      0.0784: real time      0.0786
     EDDAV:  cpu time     45.2846: real time     45.6080
       DOS:  cpu time      0.0021: real time      0.0022
    CHARGE:  cpu time      1.4978: real time      1.5084
    MIXING:  cpu time      0.0126: real time      0.0127
    --------------------------------------------
      LOOP:  cpu time     47.1987: real time     47.5350

 eigenvalue-minimisations  :  4440
 total energy-change (2. order) :-0.3166876E-02  (-0.5719375E+00)
 number of electron     384.0001600 magnetization 
 augmentation part       30.9948583 magnetization 

 Broyden mixing:
  rms(total) = 0.93503E+00    rms(broyden)= 0.93485E+00
  rms(prec ) = 0.10562E+01
  weight for this iteration     100.00

 eigenvalues of (default mixing * dielectric matrix)
  average eigenvalue GAMMA=   1.3025
  1.1757  1.4294

 Free energy of the ion-electron system (eV)
  ---------------------------------------------------
  alpha Z        PSCENC =       601.31638087
  Ewald energy   TEWEN  =    -19292.71523510
  -Hartree energ DENC   =     -5809.51685849
  -exchange      EXHF   =         0.00000000
  -V(xc)+E(xc)   XCENC  =       585.91289812
  PAW double counting   =     27732.04437299   -26808.92426350
  entropy T*S    EENTRO =         0.00059511
  eigenvalues    EBANDS =       -62.08150049
  atomic energy  EATOM  =     22461.85434800
  Solvation  Ediel_sol  =         0.00000000
  ---------------------------------------------------
  free energy    TOTEN  =      -592.10926250 eV

  energy without entropy =     -592.10985761  energy(sigma->0) =     -592.10946087


--------------------------------------------------------------------------------------------------------




--------------------------------------- Iteration      1(   8)  ---------------------------------------


    POTLOK:  cpu time      0.3195: real time      0.3214
    SETDIJ:  cpu time      0.0789: real time      0.0793
     EDDAV:  cpu time     44.2841: real time     44.6397
       DOS:  cpu time      0.0024: real time      0.0025
    CHARGE:  cpu time      1.4992: real time      1.5082
    MIXING:  cpu time      0.0129: real time      0.0129
    --------------------------------------------
      LOOP:  cpu time     46.1969: real time     46.5641

 eigenvalue-minimisations  :  4320
 total energy-change (2. order) : 0.1507921E-01  (-0.4682850E-01)
 number of electron     384.0001603 magnetization 
 augmentation part       31.0745549 magnetization 

 Broyden mixing:
  rms(total) = 0.28856E+00    rms(broyden)= 0.28855E+00
  rms(prec ) = 0.33901E+00
  weight for this iteration     100.00

 eigenvalues of (default mixing * dielectric matrix)
  average eigenvalue GAMMA=   1.5586
  2.5374  1.0691  1.0691

 Free energy of the ion-electron system (eV)
  ---------------------------------------------------
  alpha Z        PSCENC =       601.31638087
  Ewald energy   TEWEN  =    -19292.71523510
  -Hartree energ DENC   =     -5830.89212480
  -exchange      EXHF   =         0.00000000
  -V(xc)+E(xc)   XCENC  =       588.73958049
  PAW double counting   =     30696.25738709   -29772.30692803
  entropy T*S    EENTRO =         0.00061997
  eigenvalues    EBANDS =       -44.34821176
  atomic energy  EATOM  =     22461.85434800
  Solvation  Ediel_sol  =         0.00000000
  ---------------------------------------------------
  free energy    TOTEN  =      -592.09418328 eV

  energy without entropy =     -592.09480325  energy(sigma->0) =     -592.09438994


--------------------------------------------------------------------------------------------------------




--------------------------------------- Iteration      1(   9)  ---------------------------------------


    POTLOK:  cpu time      0.3253: real time      0.3352
    SETDIJ:  cpu time      0.0802: real time      0.0805
     EDDAV:  cpu time     43.2105: real time     43.5228
       DOS:  cpu time      0.0021: real time      0.0022
    CHARGE:  cpu time      1.4969: real time      1.5087
    MIXING:  cpu time      0.0133: real time      0.0134
    --------------------------------------------
      LOOP:  cpu time     45.1284: real time     45.4629

 eigenvalue-minimisations  :  4184
 total energy-change (2. order) :-0.4855038E-01  (-0.1455537E-01)
 number of electron     384.0001600 magnetization 
 augmentation part       31.0196951 magnetization 

 Broyden mixing:
  rms(total) = 0.68354E-01    rms(broyden)= 0.68344E-01
  rms(prec ) = 0.71156E-01
  weight for this iteration     100.00

 eigenvalues of (default mixing * dielectric matrix)
  average eigenvalue GAMMA=   1.7300
  1.0236  1.0236  2.4365  2.4365

 Free energy of the ion-electron system (eV)
  ---------------------------------------------------
  alpha Z        PSCENC =       601.31638087
  Ewald energy   TEWEN  =    -19292.71523510
  -Hartree energ DENC   =     -5858.35563819
  -exchange      EXHF   =         0.00000000
  -V(xc)+E(xc)   XCENC  =       591.49399134
  PAW double counting   =     31989.21318728   -31065.18649358
  entropy T*S    EENTRO =         0.00061513
  eigenvalues    EBANDS =       -19.76388942
  atomic energy  EATOM  =     22461.85434800
  Solvation  Ediel_sol  =         0.00000000
  ---------------------------------------------------
  free energy    TOTEN  =      -592.14273366 eV

  energy without entropy =     -592.14334879  energy(sigma->0) =     -592.14293871


--------------------------------------------------------------------------------------------------------




--------------------------------------- Iteration      1(  10)  ---------------------------------------


    POTLOK:  cpu time      0.3177: real time      0.3194
    SETDIJ:  cpu time      0.0784: real time      0.0787
     EDDAV:  cpu time     44.4398: real time     44.7914
       DOS:  cpu time      0.0023: real time      0.0025
    CHARGE:  cpu time      1.4966: real time      1.5063
    MIXING:  cpu time      0.0133: real time      0.0133
    --------------------------------------------
      LOOP:  cpu time     46.3480: real time     46.7117

 eigenvalue-minimisations  :  4344
 total energy-change (2. order) :-0.6487075E-02  (-0.2837355E-02)
 number of electron     384.0001602 magnetization 
 augmentation part       30.9890760 magnetization 

 Broyden mixing:
  rms(total) = 0.32273E-01    rms(broyden)= 0.32249E-01
  rms(prec ) = 0.38893E-01
  weight for this iteration     100.00

 eigenvalues of (default mixing * dielectric matrix)
  average eigenvalue GAMMA=   1.5365
  2.6394  2.3307  1.0058  1.0058  0.7007

 Free energy of the ion-electron system (eV)
  ---------------------------------------------------
  alpha Z        PSCENC =       601.31638087
  Ewald energy   TEWEN  =    -19292.71523510
  -Hartree energ DENC   =     -5861.70666223
  -exchange      EXHF   =         0.00000000
  -V(xc)+E(xc)   XCENC  =       591.78813775
  PAW double counting   =     31600.04071809   -30676.11461386
  entropy T*S    EENTRO =         0.00059435
  eigenvalues    EBANDS =       -16.61288860
  atomic energy  EATOM  =     22461.85434800
  Solvation  Ediel_sol  =         0.00000000
  ---------------------------------------------------
  free energy    TOTEN  =      -592.14922074 eV

  energy without entropy =     -592.14981509  energy(sigma->0) =     -592.14941885


--------------------------------------------------------------------------------------------------------




--------------------------------------- Iteration      1(  11)  ---------------------------------------


    POTLOK:  cpu time      0.3229: real time      0.3246
    SETDIJ:  cpu time      0.0787: real time      0.0790
     EDDAV:  cpu time     44.1617: real time     44.5811
       DOS:  cpu time      0.0023: real time      0.0024
    CHARGE:  cpu time      1.4927: real time      1.5014
    MIXING:  cpu time      0.0146: real time      0.0146
    --------------------------------------------
      LOOP:  cpu time     46.0728: real time     46.5031

 eigenvalue-minimisations  :  4312
 total energy-change (2. order) : 0.1242777E-02  (-0.5792751E-03)
 number of electron     384.0001602 magnetization 
 augmentation part       31.0072104 magnetization 

 Broyden mixing:
  rms(total) = 0.19371E-01    rms(broyden)= 0.19368E-01
  rms(prec ) = 0.21914E-01
  weight for this iteration     100.00

 eigenvalues of (default mixing * dielectric matrix)
  average eigenvalue GAMMA=   1.5588
  2.7779  2.4712  1.0213  1.0213  1.0305  1.0305

 Free energy of the ion-electron system (eV)
  ---------------------------------------------------
  alpha Z        PSCENC =       601.31638087
  Ewald energy   TEWEN  =    -19292.71523510
  -Hartree energ DENC   =     -5860.35221276
  -exchange      EXHF   =         0.00000000
  -V(xc)+E(xc)   XCENC  =       591.70381624
  PAW double counting   =     31587.01936309   -30663.05439429
  entropy T*S    EENTRO =         0.00060427
  eigenvalues    EBANDS =       -17.92064828
  atomic energy  EATOM  =     22461.85434800
  Solvation  Ediel_sol  =         0.00000000
  ---------------------------------------------------
  free energy    TOTEN  =      -592.14797796 eV

  energy without entropy =     -592.14858223  energy(sigma->0) =     -592.14817939


--------------------------------------------------------------------------------------------------------




--------------------------------------- Iteration      1(  12)  ---------------------------------------


    POTLOK:  cpu time      0.3210: real time      0.3228
    SETDIJ:  cpu time      0.0887: real time      0.0890
     EDDAV:  cpu time     43.9083: real time     44.2704
       DOS:  cpu time      0.0022: real time      0.0024
    CHARGE:  cpu time      1.4920: real time      1.5002
    MIXING:  cpu time      0.0151: real time      0.0152
    --------------------------------------------
      LOOP:  cpu time     45.8274: real time     46.2000

 eigenvalue-minimisations  :  4272
 total energy-change (2. order) :-0.8137729E-05  (-0.3494763E-03)
 number of electron     384.0001601 magnetization 
 augmentation part       31.0083495 magnetization 

 Broyden mixing:
  rms(total) = 0.62098E-02    rms(broyden)= 0.61891E-02
  rms(prec ) = 0.75293E-02
  weight for this iteration     100.00

 eigenvalues of (default mixing * dielectric matrix)
  average eigenvalue GAMMA=   1.4987
  2.8681  2.4626  1.1076  1.1076  1.0061  0.9693  0.9693

 Free energy of the ion-electron system (eV)
  ---------------------------------------------------
  alpha Z        PSCENC =       601.31638087
  Ewald energy   TEWEN  =    -19292.71523510
  -Hartree energ DENC   =     -5860.44490651
  -exchange      EXHF   =         0.00000000
  -V(xc)+E(xc)   XCENC  =       591.71490943
  PAW double counting   =     31513.24295131   -30589.29299984
  entropy T*S    EENTRO =         0.00061048
  eigenvalues    EBANDS =       -17.82404474
  atomic energy  EATOM  =     22461.85434800
  Solvation  Ediel_sol  =         0.00000000
  ---------------------------------------------------
  free energy    TOTEN  =      -592.14798610 eV

  energy without entropy =     -592.14859657  energy(sigma->0) =     -592.14818959


--------------------------------------------------------------------------------------------------------




--------------------------------------- Iteration      1(  13)  ---------------------------------------


    POTLOK:  cpu time      0.3208: real time      0.3224
    SETDIJ:  cpu time      0.0787: real time      0.0789
     EDDAV:  cpu time     43.6799: real time     44.0583
       DOS:  cpu time      0.0023: real time      0.0025
    CHARGE:  cpu time      1.4947: real time      1.5111
    MIXING:  cpu time      0.0163: real time      0.0164
    --------------------------------------------
      LOOP:  cpu time     45.5927: real time     45.9896

 eigenvalue-minimisations  :  4240
 total energy-change (2. order) : 0.4253702E-04  (-0.5859567E-04)
 number of electron     384.0001601 magnetization 
 augmentation part       31.0145326 magnetization 

 Broyden mixing:
  rms(total) = 0.23577E-02    rms(broyden)= 0.23536E-02
  rms(prec ) = 0.26982E-02
  weight for this iteration     100.00

 eigenvalues of (default mixing * dielectric matrix)
  average eigenvalue GAMMA=   1.4971
  2.8591  2.4414  1.7496  1.0424  1.0424  0.8611  0.9904  0.9904

 Free energy of the ion-electron system (eV)
  ---------------------------------------------------
  alpha Z        PSCENC =       601.31638087
  Ewald energy   TEWEN  =    -19292.71523510
  -Hartree energ DENC   =     -5859.71545300
  -exchange      EXHF   =         0.00000000
  -V(xc)+E(xc)   XCENC  =       591.66433656
  PAW double counting   =     31503.84377149   -30579.87397484
  entropy T*S    EENTRO =         0.00060899
  eigenvalues    EBANDS =       -18.52272652
  atomic energy  EATOM  =     22461.85434800
  Solvation  Ediel_sol  =         0.00000000
  ---------------------------------------------------
  free energy    TOTEN  =      -592.14794356 eV

  energy without entropy =     -592.14855256  energy(sigma->0) =     -592.14814656


--------------------------------------------------------------------------------------------------------




--------------------------------------- Iteration      1(  14)  ---------------------------------------


    POTLOK:  cpu time      0.3255: real time      0.3274
    SETDIJ:  cpu time      0.0788: real time      0.0790
     EDDAV:  cpu time     44.3311: real time     44.6694
       DOS:  cpu time      0.0024: real time      0.0025
    CHARGE:  cpu time      1.4890: real time      1.4971
    MIXING:  cpu time      0.0162: real time      0.0163
    --------------------------------------------
      LOOP:  cpu time     46.2429: real time     46.5918

 eigenvalue-minimisations  :  4328
 total energy-change (2. order) : 0.3439200E-05  (-0.5645053E-05)
 number of electron     384.0001601 magnetization 
 augmentation part       31.0135001 magnetization 

 Broyden mixing:
  rms(total) = 0.91710E-03    rms(broyden)= 0.91612E-03
  rms(prec ) = 0.98632E-03
  weight for this iteration     100.00

 eigenvalues of (default mixing * dielectric matrix)
  average eigenvalue GAMMA=   1.5252
  2.9597  2.5539  2.1501  0.9811  0.9811  1.0666  1.0666  1.0692  0.8980

 Free energy of the ion-electron system (eV)
  ---------------------------------------------------
  alpha Z        PSCENC =       601.31638087
  Ewald energy   TEWEN  =    -19292.71523510
  -Hartree energ DENC   =     -5859.82541473
  -exchange      EXHF   =         0.00000000
  -V(xc)+E(xc)   XCENC  =       591.66949968
  PAW double counting   =     31500.26543586   -30576.29531942
  entropy T*S    EENTRO =         0.00060858
  eigenvalues    EBANDS =       -18.41824386
  atomic energy  EATOM  =     22461.85434800
  Solvation  Ediel_sol  =         0.00000000
  ---------------------------------------------------
  free energy    TOTEN  =      -592.14794012 eV

  energy without entropy =     -592.14854870  energy(sigma->0) =     -592.14814298


--------------------------------------------------------------------------------------------------------




--------------------------------------- Iteration      1(  15)  ---------------------------------------


    POTLOK:  cpu time      0.3269: real time      0.3287
    SETDIJ:  cpu time      0.0791: real time      0.0794
     EDDAV:  cpu time     37.6156: real time     37.9531
       DOS:  cpu time      0.0025: real time      0.0027
    --------------------------------------------
      LOOP:  cpu time     38.0241: real time     38.3639

 eigenvalue-minimisations  :  3496
 total energy-change (2. order) :-0.1045191E-07  (-0.4193660E-06)
 number of electron     384.0001601 magnetization 
 augmentation part       31.0135001 magnetization 

 Free energy of the ion-electron system (eV)
  ---------------------------------------------------
  alpha Z        PSCENC =       601.31638087
  Ewald energy   TEWEN  =    -19292.71523510
  -Hartree energ DENC   =     -5859.89534052
  -exchange      EXHF   =         0.00000000
  -V(xc)+E(xc)   XCENC  =       591.67309823
  PAW double counting   =     31495.88492601   -30571.91316122
  entropy T*S    EENTRO =         0.00060847
  eigenvalues    EBANDS =       -18.35356488
  atomic energy  EATOM  =     22461.85434800
  Solvation  Ediel_sol  =         0.00000000
  ---------------------------------------------------
  free energy    TOTEN  =      -592.14794013 eV

  energy without entropy =     -592.14854861  energy(sigma->0) =     -592.14814296


--------------------------------------------------------------------------------------------------------




 average (electrostatic) potential at core
  the test charge radii are     1.0406  0.7215
  (the norm of the test charge is              1.0000)
       1 -71.6462       2 -71.6462       3 -71.6462       4 -71.6462       5 -71.6462
       6 -71.6462       7 -71.6462       8 -71.6462       9 -71.6462      10 -71.6462
      11 -71.6462      12 -71.6462      13 -71.6462      14 -71.6462      15 -71.6462
      16 -71.6462      17 -71.6462      18 -71.6462      19 -71.6462      20 -71.6462
      21 -71.6462      22 -71.6462      23 -71.6462      24 -71.6462      25 -71.6462
      26 -71.6462      27 -71.6462      28 -71.6462      29 -71.6462      30 -71.6462
      31 -71.6462      32 -71.6462      33 -67.0694      34 -67.0694      35 -67.0694
      36 -67.0694      37 -67.0694      38 -67.0694      39 -67.0694      40 -67.0694
      41 -67.0694      42 -67.0695      43 -67.0694      44 -67.0695      45 -67.0694
      46 -67.0694      47 -67.0694      48 -67.0694      49 -67.0694      50 -67.0694
      51 -67.0694      52 -67.0694      53 -67.0694      54 -67.0695      55 -67.0694
      56 -67.0695      57 -67.0694      58 -67.0694      59 -67.0694      60 -67.0694
      61 -67.0694      62 -67.0694      63 -67.0694      64 -67.0694      65 -66.9468
      66 -66.9468      67 -66.9468      68 -66.9468      69 -66.9468      70 -66.9468
      71 -66.9468      72 -66.9468      73 -66.9468      74 -66.9468      75 -66.9468
      76 -66.9468      77 -66.9468      78 -66.9468      79 -66.9468      80 -66.9468



 E-fermi :   6.2568     XC(G=0): -11.7102     alpha+bet :-16.6652

 Fermi energy:         6.2567734386

 k-point     1 :       0.1250    0.1250    0.1250
  band No.  band energies     occupation 
      1     -12.8336      2.00000
      2     -12.2510      2.00000
      3     -12.2275      2.00000
      4     -11.9054      2.00000
      5     -11.8782      2.00000
      6     -11.8571      2.00000
      7     -11.7215      2.00000
      8     -11.4378      2.00000
      9     -11.4279      2.00000
     10     -11.3716      2.00000
     11     -11.3638      2.00000
     12     -11.2179      2.00000
     13     -11.1418      2.00000
     14     -11.0860      2.00000
     15     -10.9645      2.00000
     16     -10.8681      2.00000
     17     -10.8673      2.00000
     18     -10.7842      2.00000
     19     -10.7401      2.00000
     20     -10.7206      2.00000
     21     -10.6751      2.00000
     22     -10.6678      2.00000
     23     -10.6246      2.00000
     24     -10.5545      2.00000
     25     -10.5538      2.00000
     26     -10.5493      2.00000
     27     -10.5150      2.00000
     28     -10.4480      2.00000
     29     -10.4121      2.00000
     30     -10.3381      2.00000
     31     -10.3123      2.00000
     32     -10.3003      2.00000
     33     -10.1937      2.00000
     34     -10.1670      2.00000
     35     -10.1592      2.00000
     36     -10.1500      2.00000
     37     -10.1224      2.00000
     38     -10.1211      2.00000
     39     -10.1168      2.00000
     40     -10.1110      2.00000
     41     -10.0485      2.00000
     42     -10.0299      2.00000
     43     -10.0288      2.00000
     44     -10.0019      2.00000
     45      -9.9396      2.00000
     46      -9.8867      2.00000
     47      -9.8212      2.00000
     48      -9.7943      2.00000
     49      -0.0527      2.00000
     50      -0.0018      2.00000
     51       0.0826      2.00000
     52       0.0890      2.00000
     53       0.1408      2.00000
     54       0.1831      2.00000
     55       0.2488      2.00000
     56       0.3010      2.00000
     57       0.3895      2.00000
     58       0.4085      2.00000
     59       0.4124      2.00000
     60       0.4412      2.00000
     61       0.5127      2.00000
     62       0.5727      2.00000
     63       0.6134      2.00000
     64       0.6367      2.00000
     65       0.6561      2.00000
     66       0.8197      2.00000
     67       1.0336      2.00000
     68       1.0596      2.00000
     69       1.0986      2.00000
     70       1.1454      2.00000
     71       1.2087      2.00000
     72       1.2359      2.00000
     73       1.2480      2.00000
     74       1.3304      2.00000
     75       1.4001      2.00000
     76       1.4708      2.00000
     77       1.5433      2.00000
     78       1.6337      2.00000
     79       1.6801      2.00000
     80       1.7495      2.00000
     81       1.7764      2.00000
     82       1.7788      2.00000
     83       1.7956      2.00000
     84       1.8442      2.00000
     85       1.9658      2.00000
     86       1.9976      2.00000
     87       2.0016      2.00000
     88       2.0076      2.00000
     89       2.0319      2.00000
     90       2.1012      2.00000
     91       2.1109      2.00000
     92       2.1111      2.00000
     93       2.1141      2.00000
     94       2.2914      2.00000
     95       2.4440      2.00000
     96       2.4780      2.00000
     97       2.5618      2.00000
     98       2.5974      2.00000
     99       2.6702      2.00000
    100       2.7955      2.00000
    101       2.8514      2.00000
    102       2.9124      2.00000
    103       2.9412      2.00000
    104       2.9644      2.00000
    105       3.1153      2.00000
    106       3.1912      2.00000
    107       3.2317      2.00000
    108       3.2977      2.00000
    109       3.3121      2.00000
    110       3.4351      2.00000
    111       3.4806      2.00000
    112       3.4999      2.00000
    113       3.5137      2.00000
    114       3.5708      2.00000
    115       3.6378      2.00000
    116       3.6679      2.00000
    117       3.6697      2.00000
    118       3.6699      2.00000
    119       3.7007      2.00000
    120       3.8399      2.00000
    121       3.8436      2.00000
    122       3.8748      2.00000
    123       3.8906      2.00000
    124       3.9566      2.00000
    125       3.9988      2.00000
    126       4.0458      2.00000
    127       4.0490      2.00000
    128       4.1202      2.00000
    129       4.2208      2.00000
    130       4.2309      2.00000
    131       4.3756      2.00000
    132       4.3950      2.00000
    133       4.4063      2.00000
    134       4.4164      2.00000
    135       4.5220      2.00000
    136       4.5843      2.00000
    137       4.5850      2.00000
    138       4.6129      2.00000
    139       4.6337      2.00000
    140       4.6806      2.00000
    141       4.7360      2.00000
    142       4.7452      2.00000
    143       4.7994      2.00000
    144       4.8130      2.00000
    145       4.8336      2.00000
    146       4.8338      2.00000
    147       4.8521      2.00000
    148       4.8647      2.00000
    149       4.9227      2.00000
    150       4.9859      2.00000
    151       5.0101      2.00000
    152       5.0251      2.00000
    153       5.0530      2.00000
    154       5.0698      2.00000
    155       5.0883      2.00000
    156       5.0935      2.00000
    157       5.1849      2.00000
    158       5.1967      2.00000
    159       5.2762      2.00000
    160       5.2817      2.00000
    161       5.2852      2.00000
    162       5.3132      2.00000
    163       5.3343      2.00000
    164       5.3458      2.00000
    165       5.4314      2.00000
    166       5.4454      2.00000
    167       5.4501      2.00000
    168       5.5703      2.00000
    169       5.5732      2.00000
    170       5.5784      2.00000
    171       5.6011      2.00000
    172       5.6687      2.00000
    173       5.6810      2.00000
    174       5.7067      2.00000
    175       5.7291      2.00000
    176       5.7987      2.00000
[...]
     0.000000000  9.980335737  0.000000000     0.000000000  0.100197030  0.000000000
     0.000000000  0.000000000  7.093209166     0.000000000  0.000000000  0.140979911

  length of vectors
     9.704545028  9.980335737  7.093209166     0.103044501  0.100197030  0.140979911


 FORCES acting on ions
    electron-ion (+dipol)            ewald-force                    non-local-force                 convergence-correction
 -----------------------------------------------------------------------------------------------
   0.332E+01 -.291E+01 0.162E+02   -.322E+01 0.691E+00 -.154E+02   -.967E-01 0.216E+01 -.733E+00   0.113E-03 -.281E-04 0.134E-03
   0.332E+01 -.291E+01 0.162E+02   -.322E+01 0.691E+00 -.154E+02   -.967E-01 0.216E+01 -.733E+00   0.113E-03 -.246E-04 0.134E-03
   0.332E+01 -.291E+01 0.162E+02   -.322E+01 0.691E+00 -.154E+02   -.967E-01 0.216E+01 -.733E+00   0.111E-03 -.281E-04 0.134E-03
   0.332E+01 -.291E+01 0.162E+02   -.322E+01 0.691E+00 -.154E+02   -.967E-01 0.216E+01 -.733E+00   0.111E-03 -.246E-04 0.134E-03
   0.332E+01 0.291E+01 -.162E+02   -.322E+01 -.691E+00 0.154E+02   -.967E-01 -.216E+01 0.733E+00   0.113E-03 0.264E-04 -.134E-03
   0.332E+01 0.291E+01 -.162E+02   -.322E+01 -.691E+00 0.154E+02   -.967E-01 -.216E+01 0.733E+00   0.113E-03 0.263E-04 -.134E-03
   0.332E+01 0.291E+01 -.162E+02   -.322E+01 -.691E+00 0.154E+02   -.967E-01 -.216E+01 0.733E+00   0.111E-03 0.264E-04 -.133E-03
   0.332E+01 0.291E+01 -.162E+02   -.322E+01 -.691E+00 0.154E+02   -.967E-01 -.216E+01 0.733E+00   0.111E-03 0.263E-04 -.133E-03
   -.332E+01 -.291E+01 -.162E+02   0.322E+01 0.691E+00 0.154E+02   0.967E-01 0.216E+01 0.733E+00   -.111E-03 -.258E-04 -.134E-03
   -.332E+01 -.291E+01 -.162E+02   0.322E+01 0.691E+00 0.154E+02   0.967E-01 0.216E+01 0.733E+00   -.111E-03 -.269E-04 -.134E-03
   -.332E+01 -.291E+01 -.162E+02   0.322E+01 0.691E+00 0.154E+02   0.967E-01 0.216E+01 0.733E+00   -.113E-03 -.258E-04 -.135E-03
   -.332E+01 -.291E+01 -.162E+02   0.322E+01 0.691E+00 0.154E+02   0.967E-01 0.216E+01 0.733E+00   -.113E-03 -.269E-04 -.135E-03
   -.332E+01 0.291E+01 0.162E+02   0.322E+01 -.691E+00 -.154E+02   0.967E-01 -.216E+01 -.733E+00   -.111E-03 0.282E-04 0.134E-03
   -.332E+01 0.291E+01 0.162E+02   0.322E+01 -.691E+00 -.154E+02   0.967E-01 -.216E+01 -.733E+00   -.111E-03 0.245E-04 0.134E-03
   -.332E+01 0.291E+01 0.162E+02   0.322E+01 -.691E+00 -.154E+02   0.967E-01 -.216E+01 -.733E+00   -.113E-03 0.282E-04 0.134E-03
   -.332E+01 0.291E+01 0.162E+02   0.322E+01 -.691E+00 -.154E+02   0.967E-01 -.216E+01 -.733E+00   -.113E-03 0.245E-04 0.134E-03
   -.332E+01 0.291E+01 -.162E+02   0.322E+01 -.691E+00 0.154E+02   0.967E-01 -.216E+01 0.733E+00   -.112E-03 0.282E-04 -.134E-03
   -.332E+01 0.291E+01 -.162E+02   0.322E+01 -.691E+00 0.154E+02   0.967E-01 -.216E+01 0.733E+00   -.112E-03 0.245E-04 -.133E-03
   -.332E+01 0.291E+01 -.162E+02   0.322E+01 -.691E+00 0.154E+02   0.967E-01 -.216E+01 0.733E+00   -.112E-03 0.282E-04 -.134E-03
   -.332E+01 0.291E+01 -.162E+02   0.322E+01 -.691E+00 0.154E+02   0.967E-01 -.216E+01 0.733E+00   -.112E-03 0.245E-04 -.133E-03
   -.332E+01 -.291E+01 0.162E+02   0.322E+01 0.691E+00 -.154E+02   0.967E-01 0.216E+01 -.733E+00   -.112E-03 -.258E-04 0.134E-03
   -.332E+01 -.291E+01 0.162E+02   0.322E+01 0.691E+00 -.154E+02   0.967E-01 0.216E+01 -.733E+00   -.112E-03 -.269E-04 0.134E-03
   -.332E+01 -.291E+01 0.162E+02   0.322E+01 0.691E+00 -.154E+02   0.967E-01 0.216E+01 -.733E+00   -.112E-03 -.258E-04 0.134E-03
   -.332E+01 -.291E+01 0.162E+02   0.322E+01 0.691E+00 -.154E+02   0.967E-01 0.216E+01 -.733E+00   -.112E-03 -.269E-04 0.134E-03
   0.332E+01 0.291E+01 0.162E+02   -.322E+01 -.691E+00 -.154E+02   -.967E-01 -.216E+01 -.733E+00   0.112E-03 0.264E-04 0.134E-03
   0.332E+01 0.291E+01 0.162E+02   -.322E+01 -.691E+00 -.154E+02   -.967E-01 -.216E+01 -.733E+00   0.112E-03 0.263E-04 0.134E-03
   0.332E+01 0.291E+01 0.162E+02   -.322E+01 -.691E+00 -.154E+02   -.967E-01 -.216E+01 -.733E+00   0.112E-03 0.264E-04 0.134E-03
   0.332E+01 0.291E+01 0.162E+02   -.322E+01 -.691E+00 -.154E+02   -.967E-01 -.216E+01 -.733E+00   0.112E-03 0.263E-04 0.134E-03
   0.332E+01 -.291E+01 -.162E+02   -.322E+01 0.691E+00 0.154E+02   -.967E-01 0.216E+01 0.733E+00   0.112E-03 -.281E-04 -.135E-03
   0.332E+01 -.291E+01 -.162E+02   -.322E+01 0.691E+00 0.154E+02   -.967E-01 0.216E+01 0.733E+00   0.112E-03 -.246E-04 -.134E-03
   0.332E+01 -.291E+01 -.162E+02   -.322E+01 0.691E+00 0.154E+02   -.967E-01 0.216E+01 0.733E+00   0.112E-03 -.281E-04 -.135E-03
   0.332E+01 -.291E+01 -.162E+02   -.322E+01 0.691E+00 0.154E+02   -.967E-01 0.216E+01 0.733E+00   0.112E-03 -.246E-04 -.134E-03
   0.662E+01 0.323E+01 -.181E+02   -.535E+01 -.254E+01 0.191E+02   -.129E+01 -.710E+00 -.953E+00   -.179E-03 0.317E-04 -.657E-03
   0.662E+01 0.323E+01 -.181E+02   -.535E+01 -.254E+01 0.191E+02   -.129E+01 -.710E+00 -.953E+00   -.179E-03 0.395E-04 -.657E-03
   0.662E+01 0.323E+01 -.181E+02   -.535E+01 -.254E+01 0.191E+02   -.129E+01 -.710E+00 -.953E+00   -.182E-03 0.317E-04 -.656E-03
   0.662E+01 0.323E+01 -.181E+02   -.535E+01 -.254E+01 0.191E+02   -.129E+01 -.710E+00 -.953E+00   -.182E-03 0.395E-04 -.657E-03
   0.662E+01 -.323E+01 0.181E+02   -.535E+01 0.254E+01 -.191E+02   -.129E+01 0.710E+00 0.953E+00   -.179E-03 -.360E-04 0.658E-03
   0.662E+01 -.323E+01 0.181E+02   -.535E+01 0.254E+01 -.191E+02   -.129E+01 0.710E+00 0.953E+00   -.179E-03 -.352E-04 0.658E-03
   0.662E+01 -.323E+01 0.181E+02   -.535E+01 0.254E+01 -.191E+02   -.129E+01 0.710E+00 0.953E+00   -.182E-03 -.360E-04 0.658E-03
   0.662E+01 -.323E+01 0.181E+02   -.535E+01 0.254E+01 -.191E+02   -.129E+01 0.710E+00 0.953E+00   -.182E-03 -.352E-04 0.658E-03
   -.662E+01 0.323E+01 0.181E+02   0.535E+01 -.254E+01 -.191E+02   0.129E+01 -.710E+00 0.953E+00   0.182E-03 0.374E-04 0.658E-03
   -.662E+01 0.323E+01 0.181E+02   0.535E+01 -.254E+01 -.191E+02   0.129E+01 -.710E+00 0.953E+00   0.182E-03 0.340E-04 0.658E-03
   -.662E+01 0.323E+01 0.181E+02   0.535E+01 -.254E+01 -.191E+02   0.129E+01 -.710E+00 0.953E+00   0.178E-03 0.373E-04 0.658E-03
   -.662E+01 0.323E+01 0.181E+02   0.535E+01 -.254E+01 -.191E+02   0.129E+01 -.710E+00 0.953E+00   0.178E-03 0.340E-04 0.658E-03
   -.662E+01 -.323E+01 -.181E+02   0.535E+01 0.254E+01 0.191E+02   0.129E+01 0.710E+00 -.953E+00   0.182E-03 -.313E-04 -.659E-03
   -.662E+01 -.323E+01 -.181E+02   0.535E+01 0.254E+01 0.191E+02   0.129E+01 0.710E+00 -.953E+00   0.182E-03 -.400E-04 -.659E-03
   -.662E+01 -.323E+01 -.181E+02   0.535E+01 0.254E+01 0.191E+02   0.129E+01 0.710E+00 -.953E+00   0.178E-03 -.313E-04 -.659E-03
   -.662E+01 -.323E+01 -.181E+02   0.535E+01 0.254E+01 0.191E+02   0.129E+01 0.710E+00 -.953E+00   0.178E-03 -.400E-04 -.660E-03
   -.662E+01 -.323E+01 0.181E+02   0.535E+01 0.254E+01 -.191E+02   0.129E+01 0.710E+00 0.953E+00   0.180E-03 -.313E-04 0.658E-03
   -.662E+01 -.323E+01 0.181E+02   0.535E+01 0.254E+01 -.191E+02   0.129E+01 0.710E+00 0.953E+00   0.180E-03 -.400E-04 0.658E-03
   -.662E+01 -.323E+01 0.181E+02   0.535E+01 0.254E+01 -.191E+02   0.129E+01 0.710E+00 0.953E+00   0.181E-03 -.313E-04 0.658E-03
   -.662E+01 -.323E+01 0.181E+02   0.535E+01 0.254E+01 -.191E+02   0.129E+01 0.710E+00 0.953E+00   0.181E-03 -.400E-04 0.659E-03
   -.662E+01 0.323E+01 -.181E+02   0.535E+01 -.254E+01 0.191E+02   0.129E+01 -.710E+00 -.953E+00   0.180E-03 0.373E-04 -.657E-03
   -.662E+01 0.323E+01 -.181E+02   0.535E+01 -.254E+01 0.191E+02   0.129E+01 -.710E+00 -.953E+00   0.180E-03 0.340E-04 -.657E-03
   -.662E+01 0.323E+01 -.181E+02   0.535E+01 -.254E+01 0.191E+02   0.129E+01 -.710E+00 -.953E+00   0.181E-03 0.374E-04 -.657E-03
   -.662E+01 0.323E+01 -.181E+02   0.535E+01 -.254E+01 0.191E+02   0.129E+01 -.710E+00 -.953E+00   0.181E-03 0.340E-04 -.657E-03
   0.662E+01 -.323E+01 -.181E+02   -.535E+01 0.254E+01 0.191E+02   -.129E+01 0.710E+00 -.953E+00   -.179E-03 -.360E-04 -.659E-03
   0.662E+01 -.323E+01 -.181E+02   -.535E+01 0.254E+01 0.191E+02   -.129E+01 0.710E+00 -.953E+00   -.179E-03 -.352E-04 -.659E-03
   0.662E+01 -.323E+01 -.181E+02   -.535E+01 0.254E+01 0.191E+02   -.129E+01 0.710E+00 -.953E+00   -.182E-03 -.360E-04 -.659E-03
   0.662E+01 -.323E+01 -.181E+02   -.535E+01 0.254E+01 0.191E+02   -.129E+01 0.710E+00 -.953E+00   -.182E-03 -.352E-04 -.659E-03
   0.662E+01 0.323E+01 0.181E+02   -.535E+01 -.254E+01 -.191E+02   -.129E+01 -.710E+00 0.953E+00   -.179E-03 0.317E-04 0.658E-03
   0.662E+01 0.323E+01 0.181E+02   -.535E+01 -.254E+01 -.191E+02   -.129E+01 -.710E+00 0.953E+00   -.179E-03 0.395E-04 0.658E-03
   0.662E+01 0.323E+01 0.181E+02   -.535E+01 -.254E+01 -.191E+02   -.129E+01 -.710E+00 0.953E+00   -.182E-03 0.317E-04 0.658E-03
   0.662E+01 0.323E+01 0.181E+02   -.535E+01 -.254E+01 -.191E+02   -.129E+01 -.710E+00 0.953E+00   -.182E-03 0.395E-04 0.658E-03
   -.197E+02 -.451E-04 -.291E-04   0.205E+02 0.114E-04 0.388E-04   -.897E+00 -.232E-18 -.793E-19   -.112E-03 -.253E-05 -.151E-05
   -.197E+02 -.429E-04 -.253E-04   0.205E+02 -.407E-05 0.462E-05   -.897E+00 -.213E-18 -.869E-19   -.112E-03 0.252E-05 -.748E-06
   -.197E+02 -.451E-04 -.291E-04   0.205E+02 0.114E-04 0.388E-04   -.897E+00 0.690E-19 0.122E-19   -.115E-03 -.253E-05 -.151E-05
   -.197E+02 -.429E-04 -.253E-04   0.205E+02 -.407E-05 0.462E-05   -.897E+00 -.821E-19 -.181E-18   -.115E-03 0.252E-05 -.748E-06
   0.197E+02 -.442E-04 -.487E-04   -.205E+02 -.137E-05 -.180E-04   0.897E+00 0.826E-19 -.797E-19   0.115E-03 0.348E-05 0.801E-06
   0.197E+02 -.458E-04 -.448E-04   -.205E+02 0.150E-04 -.412E-04   0.897E+00 0.122E-18 -.161E-19   0.115E-03 -.349E-05 0.149E-05
   0.197E+02 -.442E-04 -.487E-04   -.205E+02 -.137E-05 -.180E-04   0.897E+00 -.142E-18 -.825E-19   0.112E-03 0.348E-05 0.801E-06
   0.197E+02 -.458E-04 -.448E-04   -.205E+02 0.150E-04 -.412E-04   0.897E+00 -.130E-18 -.694E-19   0.112E-03 -.349E-05 0.149E-05
   0.197E+02 -.468E-04 -.575E-04   -.205E+02 -.378E-05 0.113E-04   0.897E+00 -.100E-18 0.208E-19   0.113E-03 0.348E-05 -.786E-06
   0.197E+02 -.484E-04 -.615E-04   -.205E+02 0.125E-04 0.345E-04   0.897E+00 0.109E-18 -.208E-20   0.113E-03 -.349E-05 -.148E-05
   0.197E+02 -.468E-04 -.575E-04   -.205E+02 -.378E-05 0.113E-04   0.897E+00 0.201E-18 0.576E-19   0.115E-03 0.348E-05 -.786E-06
   0.197E+02 -.484E-04 -.615E-04   -.205E+02 0.125E-04 0.345E-04   0.897E+00 0.292E-18 0.133E-18   0.115E-03 -.349E-05 -.148E-05
   -.197E+02 -.500E-04 -.125E-04   0.205E+02 0.138E-04 -.455E-04   -.897E+00 -.142E-18 0.100E-18   -.112E-03 -.253E-05 0.153E-05
   -.197E+02 -.478E-04 -.164E-04   0.205E+02 -.166E-05 -.113E-04   -.897E+00 -.139E-18 0.912E-19   -.112E-03 0.252E-05 0.762E-06
   -.197E+02 -.500E-04 -.125E-04   0.205E+02 0.138E-04 -.455E-04   -.897E+00 -.139E-18 0.207E-18   -.115E-03 -.253E-05 0.153E-05
   -.197E+02 -.478E-04 -.164E-04   0.205E+02 -.166E-05 -.113E-04   -.897E+00 0.280E-19 0.887E-19   -.115E-03 0.252E-05 0.762E-06
 -----------------------------------------------------------------------------------------------
   0.505E-02 -.242E-02 -.790E-03   -.711E-14 0.772E-13 -.917E-13   -.222E-15 0.155E-14 -.122E-14   0.166E-06 -.387E-07 0.174E-08


 POSITION                                       TOTAL-FORCE (eV/Angst)
 -----------------------------------------------------------------------------------
      1.22423      0.15666      2.76627        -0.002389     -0.056992      0.042191
      1.22423      5.14683      2.76627        -0.002389     -0.056992      0.042191
      6.07651      0.15666      2.76627        -0.002389     -0.056992      0.042191
      6.07651      5.14683      2.76627        -0.002389     -0.056992      0.042191
      1.22423      2.33842      4.32694        -0.002389      0.056992     -0.042191
      1.22423      7.32859      4.32694        -0.002389      0.056992     -0.042191
      6.07651      2.33842      4.32694        -0.002389      0.056992     -0.042191
      6.07651      7.32859      4.32694        -0.002389      0.056992     -0.042191
      1.20190      2.65175      0.78034         0.002389     -0.056992     -0.042191
      1.20190      7.64192      0.78034         0.002389     -0.056992     -0.042191
      6.05418      2.65175      0.78034         0.002389     -0.056992     -0.042191
      6.05418      7.64192      0.78034         0.002389     -0.056992     -0.042191
      1.20190      4.83350      6.31287         0.002389      0.056992      0.042191
      1.20190      9.82367      6.31287         0.002389      0.056992      0.042191
      6.05418      4.83350      6.31287         0.002389      0.056992      0.042191
      6.05418      9.82367      6.31287         0.002389      0.056992      0.042191
      3.62804      4.83350      4.32694         0.002389      0.056992     -0.042191
      3.62804      9.82367      4.32694         0.002389      0.056992     -0.042191
      8.48031      4.83350      4.32694         0.002389      0.056992     -0.042191
      8.48031      9.82367      4.32694         0.002389      0.056992     -0.042191
      3.62804      2.65175      2.76627         0.002389     -0.056992      0.042191
      3.62804      7.64192      2.76627         0.002389     -0.056992      0.042191
      8.48031      2.65175      2.76627         0.002389     -0.056992      0.042191
      8.48031      7.64192      2.76627         0.002389     -0.056992      0.042191
      3.65037      2.33842      6.31287        -0.002389      0.056992      0.042191
      3.65037      7.32859      6.31287        -0.002389      0.056992      0.042191
      8.50264      2.33842      6.31287        -0.002389      0.056992      0.042191
      8.50264      7.32859      6.31287        -0.002389      0.056992      0.042191
      3.65037      0.15666      0.78034        -0.002389     -0.056992     -0.042191
      3.65037      5.14683      0.78034        -0.002389     -0.056992     -0.042191
      8.50264      0.15666      0.78034        -0.002389     -0.056992     -0.042191
      8.50264      5.14683      0.78034        -0.002389     -0.056992     -0.042191
      0.51955      0.51095      4.64001        -0.019969     -0.018935     -0.025413
      0.51955      5.50112      4.64001        -0.019969     -0.018935     -0.025413
      5.37182      0.51095      4.64001        -0.019969     -0.018935     -0.025413
      5.37182      5.50112      4.64001        -0.019969     -0.018935     -0.025413
      0.51955      1.98414      2.45320        -0.019969      0.018935      0.025413
      0.51955      6.97430      2.45320        -0.019969      0.018935      0.025413
      5.37182      1.98414      2.45320        -0.019969      0.018935      0.025413
      5.37182      6.97430      2.45320        -0.019969      0.018935      0.025413
      1.90659      3.00603      5.99980         0.019969     -0.018935      0.025413
      1.90659      7.99620      5.99980         0.019969     -0.018935      0.025413
      6.75886      3.00603      5.99980         0.019969     -0.018935      0.025413
      6.75886      7.99620      5.99980         0.019969     -0.018935      0.025413
      1.90659      4.47922      1.09341         0.019969      0.018935     -0.025413
      1.90659      9.46939      1.09341         0.019969      0.018935     -0.025413
      6.75886      4.47922      1.09341         0.019969      0.018935     -0.025413
      6.75886      9.46939      1.09341         0.019969      0.018935     -0.025413
      4.33273      4.47922      2.45320         0.019969      0.018935      0.025413
      4.33273      9.46939      2.45320         0.019969      0.018935      0.025413
      9.18500      4.47922      2.45320         0.019969      0.018935      0.025413
      9.18500      9.46939      2.45320         0.019969      0.018935      0.025413
      4.33273      3.00603      4.64001         0.019969     -0.018935     -0.025413
      4.33273      7.99620      4.64001         0.019969     -0.018935     -0.025413
      9.18500      3.00603      4.64001         0.019969     -0.018935     -0.025413
      9.18500      7.99620      4.64001         0.019969     -0.018935     -0.025413
      2.94568      1.98414      1.09341        -0.019969      0.018935     -0.025413
      2.94568      6.97430      1.09341        -0.019969      0.018935     -0.025413
      7.79795      1.98414      1.09341        -0.019969      0.018935     -0.025413
      7.79795      6.97430      1.09341        -0.019969      0.018935     -0.025413
      2.94568      0.51095      5.99980        -0.019969     -0.018935      0.025413
      2.94568      5.50112      5.99980        -0.019969     -0.018935      0.025413
      7.79795      0.51095      5.99980        -0.019969     -0.018935      0.025413
      7.79795      5.50112      5.99980        -0.019969     -0.018935      0.025413
      0.24353      1.24754      0.00000        -0.028189     -0.000000      0.000000
      0.24353      6.23771      0.00000        -0.028189     -0.000000      0.000000
      5.09580      1.24754      0.00000        -0.028189     -0.000000      0.000000
      5.09580      6.23771      0.00000        -0.028189     -0.000000      0.000000
      2.18261      3.74263      3.54660         0.028189     -0.000000      0.000000
      2.18261      8.73279      3.54660         0.028189     -0.000000      0.000000
      7.03488      3.74263      3.54660         0.028189     -0.000000      0.000000
      7.03488      8.73279      3.54660         0.028189     -0.000000      0.000000
      4.60875      3.74263      0.00000         0.028189     -0.000000      0.000000
      4.60875      8.73279      0.00000         0.028189     -0.000000      0.000000
      9.46102      3.74263      0.00000         0.028189     -0.000000      0.000000
      9.46102      8.73279      0.00000         0.028189     -0.000000      0.000000
      2.66966      1.24754      3.54660        -0.028189     -0.000000      0.000000
      2.66966      6.23771      3.54660        -0.028189     -0.000000      0.000000
      7.52194      1.24754      3.54660        -0.028189     -0.000000      0.000000
      7.52194      6.23771      3.54660        -0.028189     -0.000000      0.000000
 -----------------------------------------------------------------------------------
    total drift:                                0.005049     -0.002418     -0.000790


--------------------------------------------------------------------------------------------------------



  FREE ENERGIE OF THE ION-ELECTRON SYSTEM (eV)
  ---------------------------------------------------
  free  energy   TOTEN  =      -592.14794013 eV

  energy  without entropy=     -592.14854861  energy(sigma->0) =     -592.14814296



--------------------------------------------------------------------------------------------------------


    POTLOK:  cpu time      0.4026: real time      0.4148


--------------------------------------------------------------------------------------------------------


 writing wavefunctions
     LOOP+:  cpu time    718.8853: real time    724.9276
    4ORBIT:  cpu time      0.0000: real time      0.0000

 total amount of memory used by VASP MPI-rank0   498138. kBytes
=======================================================================

   base      :      30000. kBytes
   nonlr-proj:       8585. kBytes
   fftplans  :      24184. kBytes
   grid      :      42969. kBytes
   one-center:        245. kBytes
   wavefun   :     392155. kBytes

  
  
 General timing and accounting informations for this job:
 ========================================================
  
                  Total CPU time used (sec):      727.643
                            User time (sec):      725.048
                          System time (sec):        2.595
                         Elapsed time (sec):      733.729
  
                   Maximum memory used (kb):      677692.
                   Average memory used (kb):          N/A
  
                          Minor page faults:       320446
                          Major page faults:           12
                 Voluntary context switches:          735
