 vasp.6.3.0 20Jan22 (build Jul  1 2024 12:21:46) complex                         
 executed on             LinuxGNU date 2024.10.21  12:39:17
 running    1 mpi-ranks, with    1 threads/rank
 distrk:  each k-point on    1 cores,    1 groups
 distr:  one band on NCORE=   1 cores,    1 groups


--------------------------------------------------------------------------------------------------------


 INCAR:
   SYSTEM = Alumina_orthorombic_cell_under_strain
   ISTART = 0
   ICHARG = 2
   ENCUT = 400
   ALGO = Normal
   PREC = Normal
   ISPIN = 1
   LWAVE = T             (Write WAVECAR)
   LCHARG = T             (Write CHGCAR)
   NPAR = 1
   EDIFF = 1E-6
   NSW = 0
   NELM = 100
   POTIM = 0.5
   IBRION = -1
   ISMEAR = 1
   SIGMA = 0.026
   EDIFFG = -0.001
   ISIF = 2
   LREAL = Auto

 POTCAR:    PAW_PBE Al 04Jan2001                  
 POTCAR:    PAW_PBE O 08Apr2002                   
 POTCAR:    PAW_PBE Al 04Jan2001                  
   SHA256 =  17880443556af62b473fe41b62a467bd001ad55d2cabe504a3f22e34d4e9db96 Al/POTCAR             
   COPYR  = (c) Copyright 04Jan2001 Georg Kresse                                                    
   COPYR  = This file is part of the software VASP. Any use, copying, and all other rights are regul
   COPYR  = If you do not have a valid VASP license, you may not use, copy or distribute this file. 
   VRHFIN =Al: s2p1                                                                                 
   LEXCH  = PE                                                                                      
   EATOM  =    53.5387 eV,    3.9350 Ry                                                             
                                                                                                    
   TITEL  = PAW_PBE Al 04Jan2001                                                                    
   LULTRA =        F    use ultrasoft PP ?                                                          
   IUNSCR =        1    unscreen: 0-lin 1-nonlin 2-no                                               
   RPACOR =    1.500    partial core radius                                                         
   POMASS =   26.981; ZVAL   =    3.000    mass and valenz                                          
   RCORE  =    1.900    outmost cutoff radius                                                       
   RWIGS  =    2.650; RWIGS  =    1.402    wigner-seitz radius (au A)                               
   ENMAX  =  240.300; ENMIN  =  180.225 eV                                                          
   ICORE  =        2    local potential                                                             
   LCOR   =        T    correct aug charges                                                         
   LPAW   =        T    paw PP                                                                      
   EAUG   =  291.052                                                                                
   DEXC   =    0.000                                                                                
   RMAX   =    1.939    core radius for proj-oper                                                   
   RAUG   =    1.300    factor for augmentation sphere                                              
   RDEP   =    1.966    radius for radial grids                                                     
   RDEPT  =    1.856    core radius for aug-charge                                                  
                                                                                                    
   Atomic configuration                                                                             
    6 entries                                                                                       
     n  l   j            E        occ.                                                              
     1  0  0.50     -1511.1048   2.0000                                                             
     2  0  0.50      -108.1629   2.0000                                                             
     2  1  1.50       -69.6402   6.0000                                                             
     3  0  0.50        -7.7528   2.0000                                                             
     3  1  1.50        -2.7121   1.0000                                                             
     3  2  2.50        -2.7212   0.0000                                                             
   Description                                                                                      
     l       E           TYP  RCUT    TYP  RCUT                                                     
     0     -7.7528455     23  1.900                                                                 
     0     -3.3096929     23  1.900                                                                 
     1     -2.7120682     23  1.900                                                                 
     1     13.6058260     23  1.900                                                                 
     2     -2.7211652      7  1.900                                                                 
  local pseudopotential read in
  partial core-charges read in
  partial kinetic energy density read in
  atomic valenz-charges read in
  non local Contribution for L=           0  read in
    real space projection operators read in
  non local Contribution for L=           0  read in
    real space projection operators read in
  non local Contribution for L=           1  read in
    real space projection operators read in
  non local Contribution for L=           1  read in
    real space projection operators read in
    PAW grid and wavefunctions read in

   number of l-projection  operators is LMAX  =           4
   number of lm-projection operators is LMMAX =           8

 POTCAR:    PAW_PBE O 08Apr2002                   
   SHA256 =  818f92134a0a090dccd8ba1447fa70422a3b330e708bb4f08108d8ae51209ddf O/POTCAR              
   COPYR  = (c) Copyright 08Apr2002 Georg Kresse                                                    
   COPYR  = This file is part of the software VASP. Any use, copying, and all other rights are regul
   COPYR  = If you do not have a valid VASP license, you may not use, copy or distribute this file. 
   VRHFIN =O: s2p4                                                                                  
   LEXCH  = PE                                                                                      
   EATOM  =   432.3788 eV,   31.7789 Ry                                                             
                                                                                                    
   TITEL  = PAW_PBE O 08Apr2002                                                                     
   LULTRA =        F    use ultrasoft PP ?                                                          
   IUNSCR =        1    unscreen: 0-lin 1-nonlin 2-no                                               
   RPACOR =    1.200    partial core radius                                                         
   POMASS =   16.000; ZVAL   =    6.000    mass and valenz                                          
   RCORE  =    1.520    outmost cutoff radius                                                       
   RWIGS  =    1.550; RWIGS  =    0.820    wigner-seitz radius (au A)                               
   ENMAX  =  400.000; ENMIN  =  300.000 eV                                                          
   ICORE  =        2    local potential                                                             
   LCOR   =        T    correct aug charges                                                         
   LPAW   =        T    paw PP                                                                      
   EAUG   =  605.392                                                                                
   DEXC   =    0.000                                                                                
   RMAX   =    1.553    core radius for proj-oper                                                   
   RAUG   =    1.300    factor for augmentation sphere                                              
   RDEP   =    1.550    radius for radial grids                                                     
   RDEPT  =    1.329    core radius for aug-charge                                                  
                                                                                                    
   Atomic configuration                                                                             
    4 entries                                                                                       
     n  l   j            E        occ.                                                              
     1  0  0.50      -514.6923   2.0000                                                             
     2  0  0.50       -23.9615   2.0000                                                             
     2  1  0.50        -9.0305   4.0000                                                             
     3  2  1.50        -9.5241   0.0000                                                             
   Description                                                                                      
     l       E           TYP  RCUT    TYP  RCUT                                                     
     0    -23.9615318     23  1.200                                                                 
     0     -9.5240782     23  1.200                                                                 
     1     -9.0304911     23  1.520                                                                 
     1      8.1634956     23  1.520                                                                 
     2     -9.5240782      7  1.500                                                                 
  local pseudopotential read in
  partial core-charges read in
  partial kinetic energy density read in
  kinetic energy density of atom read in
  atomic valenz-charges read in
  non local Contribution for L=           0  read in
    real space projection operators read in
  non local Contribution for L=           0  read in
    real space projection operators read in
  non local Contribution for L=           1  read in
    real space projection operators read in
  non local Contribution for L=           1  read in
    real space projection operators read in
    PAW grid and wavefunctions read in

   number of l-projection  operators is LMAX  =           4
   number of lm-projection operators is LMMAX =           8

 Optimization of the real space projectors (new method)

 maximal supplied QI-value         = 19.84
 optimisation between [QCUT,QGAM] = [ 10.12, 20.44] = [ 28.68,116.96] Ry 
 Optimized for a Real-space Cutoff    1.23 Angstroem

   l    n(q)    QCUT    max X(q) W(low)/X(q) W(high)/X(q)  e(spline) 
   0      7    10.119   176.870    0.49E-04    0.18E-03    0.39E-07
   0      7    10.119   105.762    0.46E-04    0.18E-03    0.38E-07
   1      7    10.119    55.370    0.30E-03    0.37E-03    0.12E-06
   1      7    10.119    20.208    0.27E-03    0.35E-03    0.11E-06
 Optimization of the real space projectors (new method)

 maximal supplied QI-value         = 24.76
 optimisation between [QCUT,QGAM] = [ 10.15, 20.30] = [ 28.85,115.39] Ry 
 Optimized for a Real-space Cutoff    1.38 Angstroem

   l    n(q)    QCUT    max X(q) W(low)/X(q) W(high)/X(q)  e(spline) 
   0      8    10.150    20.381    0.22E-03    0.32E-03    0.29E-06
   0      8    10.150    15.268    0.23E-03    0.35E-03    0.30E-06
   1      8    10.150     5.964    0.46E-03    0.53E-03    0.21E-06
   1      8    10.150     5.382    0.38E-03    0.45E-03    0.19E-06
  PAW_PBE Al 04Jan2001                  :
 energy of atom  1       EATOM=  -53.5387
 kinetic energy error for atom=    0.0005 (will be added to EATOM!!)
  PAW_PBE O 08Apr2002                   :
 energy of atom  2       EATOM= -432.3788
 kinetic energy error for atom=    0.1156 (will be added to EATOM!!)


 POSCAR:    Al  O
  positions in direct lattice
  No initial velocities read in
 exchange correlation table for  LEXCH =        8
   RHO(1)=    0.500       N(1)  =     2000
   RHO(2)=  100.500       N(2)  =     4000



--------------------------------------------------------------------------------------------------------


 ion  position               nearest neighbor table
   1  0.126  0.016  0.390-  70 1.85  52 1.87  46 1.90  77 1.95  37 1.96  33 2.01   5 2.65  18 2.85
                            20 2.89  31 3.10  29 3.10  10 3.15   9 3.15   6 3.18
   2  0.126  0.516  0.390-  69 1.85  51 1.87  45 1.90  78 1.95  38 1.96  34 2.01   6 2.65  17 2.85
                            19 2.89  32 3.10  30 3.10   9 3.15  10 3.15   5 3.18
   3  0.626  0.016  0.390-  72 1.85  50 1.87  48 1.90  79 1.95  39 1.96  35 2.01   7 2.65  20 2.85
                            18 2.89  29 3.10  31 3.10  12 3.15  11 3.15   8 3.18
   4  0.626  0.516  0.390-  71 1.85  49 1.87  47 1.90  80 1.95  40 1.96  36 2.01   8 2.65  19 2.85
                            17 2.89  30 3.10  32 3.10  11 3.15  12 3.15   7 3.18
   5  0.126  0.234  0.610-  69 1.85  55 1.87  41 1.90  77 1.95  33 1.96  37 2.01   1 2.65  21 2.85
                            23 2.89  27 3.10  25 3.10  13 3.15  14 3.15   2 3.18
   6  0.126  0.734  0.610-  70 1.85  56 1.87  42 1.90  78 1.95  34 1.96  38 2.01   2 2.65  22 2.85
                            24 2.89  28 3.10  26 3.10  14 3.15  13 3.15   1 3.18
   7  0.626  0.234  0.610-  71 1.85  53 1.87  43 1.90  79 1.95  35 1.96  39 2.01   3 2.65  23 2.85
                            21 2.89  25 3.10  27 3.10  15 3.15  16 3.15   4 3.18
   8  0.626  0.734  0.610-  72 1.85  54 1.87  44 1.90  80 1.95  36 1.96  40 2.01   4 2.65  24 2.85
                            22 2.89  26 3.10  28 3.10  16 3.15  15 3.15   3 3.18
   9  0.124  0.266  0.110-  65 1.85  57 1.87  37 1.90  75 1.95  45 1.96  41 2.01  13 2.65  27 2.85
                            25 2.89  21 3.10  23 3.10   2 3.15   1 3.15  14 3.18
  10  0.124  0.766  0.110-  66 1.85  58 1.87  38 1.90  76 1.95  46 1.96  42 2.01  14 2.65  28 2.85
                            26 2.89  22 3.10  24 3.10   1 3.15   2 3.15  13 3.18
  11  0.624  0.266  0.110-  67 1.85  59 1.87  39 1.90  73 1.95  47 1.96  43 2.01  15 2.65  25 2.85
                            27 2.89  23 3.10  21 3.10   4 3.15   3 3.15  16 3.18
  12  0.624  0.766  0.110-  68 1.85  60 1.87  40 1.90  74 1.95  48 1.96  44 2.01  16 2.65  26 2.85
                            28 2.89  24 3.10  22 3.10   3 3.15   4 3.15  15 3.18
  13  0.124  0.484  0.890-  66 1.85  62 1.87  34 1.90  75 1.95  41 1.96  45 2.01   9 2.65  32 2.85
                            30 2.89  17 3.10  19 3.10   5 3.15   6 3.15  10 3.18
  14  0.124  0.984  0.890-  65 1.85  61 1.87  33 1.90  76 1.95  42 1.96  46 2.01  10 2.65  31 2.85
                            29 2.89  18 3.10  20 3.10   6 3.15   5 3.15   9 3.18
  15  0.624  0.484  0.890-  68 1.85  64 1.87  36 1.90  73 1.95  43 1.96  47 2.01  11 2.65  30 2.85
                            32 2.89  19 3.10  17 3.10   7 3.15   8 3.15  12 3.18
  16  0.624  0.984  0.890-  67 1.85  63 1.87  35 1.90  74 1.95  44 1.96  48 2.01  12 2.65  29 2.85
                            31 2.89  20 3.10  18 3.10   8 3.15   7 3.15  11 3.18
  17  0.374  0.484  0.610-  78 1.85  36 1.87  62 1.90  69 1.95  53 1.96  49 2.01  21 2.65   2 2.85
                             4 2.89  13 3.10  15 3.10  25 3.15  26 3.15  22 3.18
  18  0.374  0.984  0.610-  77 1.85  35 1.87  61 1.90  70 1.95  54 1.96  50 2.01  22 2.65   1 2.85
                             3 2.89  14 3.10  16 3.10  26 3.15  25 3.15  21 3.18
  19  0.874  0.484  0.610-  80 1.85  34 1.87  64 1.90  71 1.95  55 1.96  51 2.01  23 2.65   4 2.85
                             2 2.89  15 3.10  13 3.10  27 3.15  28 3.15  24 3.18
  20  0.874  0.984  0.610-  79 1.85  33 1.87  63 1.90  72 1.95  56 1.96  52 2.01  24 2.65   3 2.85
                             1 2.89  16 3.10  14 3.10  28 3.15  27 3.15  23 3.18
  21  0.374  0.266  0.390-  77 1.85  39 1.87  57 1.90  69 1.95  49 1.96  53 2.01  17 2.65   5 2.85
                             7 2.89   9 3.10  11 3.10  30 3.15  29 3.15  18 3.18
  22  0.374  0.766  0.390-  78 1.85  40 1.87  58 1.90  70 1.95  50 1.96  54 2.01  18 2.65   6 2.85
                             8 2.89  10 3.10  12 3.10  29 3.15  30 3.15  17 3.18
  23  0.874  0.266  0.390-  79 1.85  37 1.87  59 1.90  71 1.95  51 1.96  55 2.01  19 2.65   7 2.85
                             5 2.89  11 3.10   9 3.10  32 3.15  31 3.15  20 3.18
  24  0.874  0.766  0.390-  80 1.85  38 1.87  60 1.90  72 1.95  52 1.96  56 2.01  20 2.65   8 2.85
                             6 2.89  12 3.10  10 3.10  31 3.15  32 3.15  19 3.18
  25  0.376  0.234  0.890-  73 1.85  41 1.87  53 1.90  67 1.95  61 1.96  57 2.01  29 2.65  11 2.85
                             9 2.89   7 3.10   5 3.10  17 3.15  18 3.15  30 3.18
  26  0.376  0.734  0.890-  74 1.85  42 1.87  54 1.90  68 1.95  62 1.96  58 2.01  30 2.65  12 2.85
                            10 2.89   8 3.10   6 3.10  18 3.15  17 3.15  29 3.18
  27  0.876  0.234  0.890-  75 1.85  43 1.87  55 1.90  65 1.95  63 1.96  59 2.01  31 2.65   9 2.85
                            11 2.89   5 3.10   7 3.10  19 3.15  20 3.15  32 3.18
  28  0.876  0.734  0.890-  76 1.85  44 1.87  56 1.90  66 1.95  64 1.96  60 2.01  32 2.65  10 2.85
                            12 2.89   6 3.10   8 3.10  20 3.15  19 3.15  31 3.18
  29  0.376  0.016  0.110-  74 1.85  46 1.87  50 1.90  67 1.95  57 1.96  61 2.01  25 2.65  16 2.85
                            14 2.89   3 3.10   1 3.10  22 3.15  21 3.15  26 3.18
  30  0.376  0.516  0.110-  73 1.85  45 1.87  49 1.90  68 1.95  58 1.96  62 2.01  26 2.65  15 2.85
                            13 2.89   4 3.10   2 3.10  22 3.15  21 3.15  25 3.18
  31  0.876  0.016  0.110-  76 1.85  48 1.87  52 1.90  65 1.95  59 1.96  63 2.01  27 2.65  14 2.85
                            16 2.89   1 3.10   3 3.10  24 3.15  23 3.15  28 3.18
  32  0.876  0.516  0.110-  75 1.85  47 1.87  51 1.90  66 1.95  60 1.96  64 2.01  28 2.65  13 2.85
                            15 2.89   2 3.10   4 3.10  24 3.15  23 3.15  27 3.18
  33  0.054  0.051  0.654-  20 1.87  14 1.90   5 1.96   1 2.01
  34  0.054  0.551  0.654-  19 1.87  13 1.90   6 1.96   2 2.01
  35  0.554  0.051  0.654-  18 1.87  16 1.90   7 1.96   3 2.01
  36  0.554  0.551  0.654-  17 1.87  15 1.90   8 1.96   4 2.01
  37  0.054  0.199  0.346-  23 1.87   9 1.90   1 1.96   5 2.01
  38  0.054  0.699  0.346-  24 1.87  10 1.90   2 1.96   6 2.01
  39  0.554  0.199  0.346-  21 1.87  11 1.90   3 1.96   7 2.01
  40  0.554  0.699  0.346-  22 1.87  12 1.90   4 1.96   8 2.01
  41  0.196  0.301  0.846-  25 1.87   5 1.90  13 1.96   9 2.01
  42  0.196  0.801  0.846-  26 1.87   6 1.90  14 1.96  10 2.01
  43  0.696  0.301  0.846-  27 1.87   7 1.90  15 1.96  11 2.01
  44  0.696  0.801  0.846-  28 1.87   8 1.90  16 1.96  12 2.01
  45  0.196  0.449  0.154-  30 1.87   2 1.90   9 1.96  13 2.01
  46  0.196  0.949  0.154-  29 1.87   1 1.90  10 1.96  14 2.01
  47  0.696  0.449  0.154-  32 1.87   4 1.90  11 1.96  15 2.01
  48  0.696  0.949  0.154-  31 1.87   3 1.90  12 1.96  16 2.01
  49  0.446  0.449  0.346-   4 1.87  30 1.90  21 1.96  17 2.01
  50  0.446  0.949  0.346-   3 1.87  29 1.90  22 1.96  18 2.01
  51  0.946  0.449  0.346-   2 1.87  32 1.90  23 1.96  19 2.01
  52  0.946  0.949  0.346-   1 1.87  31 1.90  24 1.96  20 2.01
  53  0.446  0.301  0.654-   7 1.87  25 1.90  17 1.96  21 2.01
  54  0.446  0.801  0.654-   8 1.87  26 1.90  18 1.96  22 2.01
  55  0.946  0.301  0.654-   5 1.87  27 1.90  19 1.96  23 2.01
  56  0.946  0.801  0.654-   6 1.87  28 1.90  20 1.96  24 2.01
  57  0.304  0.199  0.154-   9 1.87  21 1.90  29 1.96  25 2.01
  58  0.304  0.699  0.154-  10 1.87  22 1.90  30 1.96  26 2.01
  59  0.804  0.199  0.154-  11 1.87  23 1.90  31 1.96  27 2.01
  60  0.804  0.699  0.154-  12 1.87  24 1.90  32 1.96  28 2.01
  61  0.304  0.051  0.846-  14 1.87  18 1.90  25 1.96  29 2.01
  62  0.304  0.551  0.846-  13 1.87  17 1.90  26 1.96  30 2.01
  63  0.804  0.051  0.846-  16 1.87  20 1.90  27 1.96  31 2.01
  64  0.804  0.551  0.846-  15 1.87  19 1.90  28 1.96  32 2.01
  65  0.025  0.125  0.000-  14 1.85   9 1.85  27 1.95  31 1.95
  66  0.025  0.625  0.000-  13 1.85  10 1.85  28 1.95  32 1.95
  67  0.525  0.125  0.000-  16 1.85  11 1.85  25 1.95  29 1.95
  68  0.525  0.625  0.000-  15 1.85  12 1.85  26 1.95  30 1.95
  69  0.225  0.375  0.500-   5 1.85   2 1.85  17 1.95  21 1.95
  70  0.225  0.875  0.500-   6 1.85   1 1.85  18 1.95  22 1.95
  71  0.725  0.375  0.500-   7 1.85   4 1.85  19 1.95  23 1.95
  72  0.725  0.875  0.500-   8 1.85   3 1.85  20 1.95  24 1.95
  73  0.475  0.375  0.000-  25 1.85  30 1.85  15 1.95  11 1.95
  74  0.475  0.875  0.000-  29 1.85  26 1.85  16 1.95  12 1.95
  75  0.975  0.375  0.000-  27 1.85  32 1.85  13 1.95   9 1.95
  76  0.975  0.875  0.000-  31 1.85  28 1.85  14 1.95  10 1.95
  77  0.275  0.125  0.500-  18 1.85  21 1.85   5 1.95   1 1.95
  78  0.275  0.625  0.500-  17 1.85  22 1.85   6 1.95   2 1.95
  79  0.775  0.125  0.500-  20 1.85  23 1.85   7 1.95   3 1.95
  80  0.775  0.625  0.500-  19 1.85  24 1.85   8 1.95   4 1.95

  LATTYP: Found a simple orthorhombic cell.
 ALAT       =     7.0124449028
 B/A-ratio  =     1.3681458986
 C/A-ratio  =     1.4070268484
  
  Lattice vectors:
  
 A1 = (   0.0000000000,   0.0000000000,   7.0124449028)
 A2 = (   9.5940477328,   0.0000000000,   0.0000000000)
 A3 = (   0.0000000000,   9.8666982514,   0.0000000000)


Analysis of symmetry for initial positions (statically):
=====================================================================
 Subroutine PRICEL returns following result:
 
  LATTYP: Found a simple orthorhombic cell.
 ALAT       =     4.7970238666
 B/A-ratio  =     1.0284187391
 C/A-ratio  =     1.4618323981
  
  Lattice vectors:
  
 A1 = (   4.7970238666,   0.0000000000,   0.0000000000)
 A2 = (   0.0000000000,   4.9333492362,   0.0000000000)
 A3 = (   0.0000000000,   0.0000000000,   7.0124449028)
 
   4 primitive cells build up your supercell.
 

 Routine SETGRP: Setting up the symmetry group for a 
 simple orthorhombic supercell.


 Subroutine GETGRP returns: Found  8 space group operations
 (whereof  2 operations were pure point group operations)
 out of a pool of  8 trial point group operations.


The static configuration has the point symmetry S_2 .
 The point group associated with its full space group is D_2h.


Analysis of symmetry for dynamics (positions and initial velocities):
=====================================================================
 Subroutine PRICEL returns following result:
 
  LATTYP: Found a simple orthorhombic cell.
 ALAT       =     4.7970238666
 B/A-ratio  =     1.0284187391
 C/A-ratio  =     1.4618323981
  
  Lattice vectors:
  
 A1 = (   4.7970238666,   0.0000000000,   0.0000000000)
 A2 = (   0.0000000000,   4.9333492362,   0.0000000000)
 A3 = (   0.0000000000,   0.0000000000,   7.0124449028)
 
   4 primitive cells build up your supercell.
 

 Routine SETGRP: Setting up the symmetry group for a 
 simple orthorhombic supercell.


 Subroutine GETGRP returns: Found  8 space group operations
 (whereof  2 operations were pure point group operations)
 out of a pool of  8 trial point group operations.


The dynamic configuration has the point symmetry S_2 .
 The point group associated with its full space group is D_2h.


Analysis of constrained symmetry for selective dynamics:
=====================================================================
 Subroutine PRICEL returns following result:
 
  LATTYP: Found a simple orthorhombic cell.
 ALAT       =     4.7970238666
 B/A-ratio  =     1.0284187391
 C/A-ratio  =     1.4618323981
  
  Lattice vectors:
  
 A1 = (   4.7970238666,   0.0000000000,   0.0000000000)
 A2 = (   0.0000000000,   4.9333492362,   0.0000000000)
 A3 = (   0.0000000000,   0.0000000000,   7.0124449028)
 
   4 primitive cells build up your supercell.
 

 Routine SETGRP: Setting up the symmetry group for a 
 simple orthorhombic supercell.


 Subroutine GETGRP returns: Found  8 space group operations
 (whereof  2 operations were pure point group operations)
 out of a pool of  8 trial point group operations.


The constrained configuration has the point symmetry S_2 .
 The point group associated with its full space group is D_2h.


 Subroutine INISYM returns: Found  8 space group operations
 (whereof  2 operations are pure point group operations),
 and found     4 'primitive' translations


----------------------------------------------------------------------------------------

                                     Primitive cell                                     

  volume of cell :     165.9523

  direct lattice vectors                    reciprocal lattice vectors
     4.797023867  0.000000000  0.000000000     0.208462586  0.000000000  0.000000000
     0.000000000  4.933349236  0.000000000     0.000000000  0.202702049  0.000000000
     0.000000000  0.000000000  7.012444903     0.000000000  0.000000000  0.142603616

  length of vectors
     4.797023867  4.933349236  7.012444903     0.208462586  0.202702049  0.142603616

  position of ions in fractional coordinates (direct lattice)
     0.252301010  0.031394432  0.389988368
     0.252301010  0.468605564  0.610011602
     0.247698990  0.531394421  0.110011610
     0.247698990  0.968605501  0.889988398
     0.747698961  0.968605501  0.610011602
     0.747698961  0.531394421  0.389988368
     0.752301039  0.468605564  0.889988398
     0.752301039  0.031394432  0.110011610
     0.107072531  0.102390997  0.654148561
     0.107072531  0.397608992  0.345851469
     0.392927454  0.602391023  0.845851439
     0.392927454  0.897608899  0.154148517
     0.892927514  0.897608899  0.345851469
     0.892927514  0.602391023  0.654148561
     0.607072486  0.397608992  0.154148517
     0.607072486  0.102390997  0.845851439
     0.050188047  0.249999994  0.000000000
     0.449811960  0.749999961  0.500000000
     0.949811900  0.749999961  0.000000000
     0.550188099  0.249999994  0.500000000

  ion indices of the primitive-cell ions
   primitive index   ion index
                 1           1
                 2           5
                 3          10
                 4          14
                 5          18
                 6          22
                 7          27
                 8          31
                 9          33
                10          37
                11          42
                12          46
                13          52
                14          56
                15          57
                16          61
                17          65
                18          70
                19          76
                20          77

----------------------------------------------------------------------------------------



 KPOINTS: k-points                                

Automatic generation of k-mesh.
 Grid dimensions read from file:
 generate k-points for:    4    4    4

 Generating k-lattice:

  Cartesian coordinates                     Fractional coordinates (reciprocal lattice)
     0.026057823  0.000000000  0.000000000     0.250000000  0.000000000  0.000000000
     0.000000000  0.025337757  0.000000000     0.000000000  0.250000000  0.000000000
     0.000000000  0.000000000  0.035650904     0.000000000  0.000000000  0.250000000

  Length of vectors
     0.026057823  0.025337757  0.035650904

  Shift w.r.t. Gamma in fractional coordinates (k-lattice)
     0.500000000  0.500000000  0.500000000

 
 Subroutine IBZKPT returns following result:
 ===========================================
 
 Found      8 irreducible k-points:
 
 Following reciprocal coordinates:
            Coordinates               Weight
  0.125000  0.125000  0.125000      8.000000
  0.375000  0.125000  0.125000      8.000000
  0.125000  0.375000  0.125000      8.000000
  0.375000  0.375000  0.125000      8.000000
  0.125000  0.125000  0.375000      8.000000
  0.375000  0.125000  0.375000      8.000000
  0.125000  0.375000  0.375000      8.000000
  0.375000  0.375000  0.375000      8.000000
 
 Following cartesian coordinates:
            Coordinates               Weight
  0.013029  0.012669  0.017825      8.000000
  0.039087  0.012669  0.017825      8.000000
  0.013029  0.038007  0.017825      8.000000
  0.039087  0.038007  0.017825      8.000000
  0.013029  0.012669  0.053476      8.000000
  0.039087  0.012669  0.053476      8.000000
  0.013029  0.038007  0.053476      8.000000
  0.039087  0.038007  0.053476      8.000000
 


--------------------------------------------------------------------------------------------------------




 Dimension of arrays:
   k-points           NKPTS =      8   k-points in BZ     NKDIM =      8   number of bands    NBANDS=    233
   number of dos      NEDOS =    301   number of ions     NIONS =     80
   non local maximal  LDIM  =      4   non local SUM 2l+1 LMDIM =      8
   total plane-waves  NPLWV =  82944
   max r-space proj   IRMAX =   1427   max aug-charges    IRDMAX=   5062
   dimension x,y,z NGX =    48 NGY =   48 NGZ =   36
   dimension x,y,z NGXF=    96 NGYF=   96 NGZF=   72
   support grid    NGXF=    96 NGYF=   96 NGZF=   72
   ions per type =              32  48
   NGX,Y,Z   is equivalent  to a cutoff of   8.32,  8.09,  8.53 a.u.
   NGXF,Y,Z  is equivalent  to a cutoff of  16.63, 16.18, 17.07 a.u.

 SYSTEM =  Alumina_orthorombic_cell_under_strain   
 POSCAR =     Al  O                                

 Startparameter for this run:
   NWRITE =      2    write-flag & timer
   PREC   = normal    normal or accurate (medium, high low for compatibility)
   ISTART =      0    job   : 0-new  1-cont  2-samecut
   ICHARG =      2    charge: 1-file 2-atom 10-const
   ISPIN  =      1    spin polarized calculation?
   LNONCOLLINEAR =      F non collinear calculations
   LSORBIT =      F    spin-orbit coupling
   INIWAV =      1    electr: 0-lowe 1-rand  2-diag
   LASPH  =      F    aspherical Exc in radial PAW
 Electronic Relaxation 1
   ENCUT  =  400.0 eV  29.40 Ry    5.42 a.u.  15.65 16.09 11.44*2*pi/ulx,y,z
   ENINI  =  400.0     initial cutoff
   ENAUG  =  605.4 eV  augmentation charge cutoff
   NELM   =    100;   NELMIN=  2; NELMDL= -5     # of ELM steps 
   EDIFF  = 0.1E-05   stopping-criterion for ELM
   LREAL  =      T    real-space projection
   NLSPLINE    = F    spline interpolate recip. space projectors
   LCOMPAT=      F    compatible to vasp.4.4
   GGA_COMPAT  = T    GGA compatible to vasp.4.4-vasp.4.6
   LMAXPAW     = -100 max onsite density
   LMAXMIX     =    2 max onsite mixed and CHGCAR
   VOSKOWN=      0    Vosko Wilk Nusair interpolation
   ROPT   =   -0.00050  -0.00050
 Ionic relaxation
   EDIFFG = -.1E-02   stopping-criterion for IOM
   NSW    =      0    number of steps for IOM
   NBLOCK =      1;   KBLOCK =      1    inner block; outer block 
   IBRION =     -1    ionic relax: 0-MD 1-quasi-New 2-CG
   NFREE  =      0    steps in history (QN), initial steepest desc. (CG)
   ISIF   =      2    stress and relaxation
   IWAVPR =     10    prediction:  0-non 1-charg 2-wave 3-comb
   ISYM   =      2    0-nonsym 1-usesym 2-fastsym
   LCORR  =      T    Harris-Foulkes like correction to forces

   POTIM  = 0.5000    time-step for ionic-motion
   TEIN   =    0.0    initial temperature
   TEBEG  =    0.0;   TEEND  =   0.0 temperature during run
   SMASS  =  -3.00    Nose mass-parameter (am)
   estimated Nose-frequenzy (Omega)   =  0.10E-29 period in steps = 0.13E+47 mass=  -0.210E-26a.u.
   SCALEE = 1.0000    scale energy and forces
   NPACO  =    256;   APACO  = 10.0  distance and # of slots for P.C.
   PSTRESS=    0.0 pullay stress

  Mass of Ions in am
   POMASS =  26.98 16.00
  Ionic Valenz
   ZVAL   =   3.00  6.00
  Atomic Wigner-Seitz radii
   RWIGS  =  -1.00 -1.00
  virtual crystal weights 
   VCA    =   1.00  1.00
   NELECT =     384.0000    total number of electrons
   NUPDOWN=      -1.0000    fix difference up-down

 DOS related values:
   EMIN   =  10.00;   EMAX   =-10.00  energy-range for DOS
   EFERMI =   0.00
   ISMEAR =     1;   SIGMA  =   0.03  broadening in eV -4-tet -1-fermi 0-gaus

 Electronic relaxation 2 (details)
   IALGO  =     38    algorithm
   LDIAG  =      T    sub-space diagonalisation (order eigenvalues)
   LSUBROT=      F    optimize rotation matrix (better conditioning)
   TURBO    =      0    0=normal 1=particle mesh
   IRESTART =      0    0=no restart 2=restart with 2 vectors
   NREBOOT  =      0    no. of reboots
   NMIN     =      0    reboot dimension
   EREF     =   0.00    reference energy to select bands
   IMIX   =      4    mixing-type and parameters
     AMIX     =   0.40;   BMIX     =  1.00
     AMIX_MAG =   1.60;   BMIX_MAG =  1.00
     AMIN     =   0.10
     WC   =   100.;   INIMIX=   1;  MIXPRE=   1;  MAXMIX= -45

 Intra band minimization:
   WEIMIN = 0.0000     energy-eigenvalue tresh-hold
   EBREAK =  0.11E-08  absolut break condition
   DEPER  =   0.30     relativ break condition  

   TIME   =   0.40     timestep for ELM

  volume/ion in A,a.u.               =       8.30        56.00
  Fermi-wavevector in a.u.,A,eV,Ry     =   1.364073  2.577724 25.316283  1.860694
  Thomas-Fermi vector in A             =   2.490420

 Write flags
   LWAVE        =      T    write WAVECAR
   LDOWNSAMPLE  =      F    k-point downsampling of WAVECAR
   LCHARG       =      T    write CHGCAR
   LVTOT        =      F    write LOCPOT, total local potential
   LVHAR        =      F    write LOCPOT, Hartree potential only
   LELF         =      F    write electronic localiz. function (ELF)
   LORBIT       =      0    0 simple, 1 ext, 2 COOP (PROOUT), +10 PAW based schemes


 Dipole corrections
   LMONO  =      F    monopole corrections only (constant potential shift)
   LDIPOL =      F    correct potential (dipole corrections)
   IDIPOL =      0    1-x, 2-y, 3-z, 4-all directions 
   EPSILON=  1.0000000 bulk dielectric constant

 Exchange correlation treatment:
   GGA     =    --    GGA type
   LEXCH   =     8    internal setting for exchange type
   LIBXC   =     F    Libxc                    
   VOSKOWN =     0    Vosko Wilk Nusair interpolation
   LHFCALC =     F    Hartree Fock is set to
   LHFONE  =     F    Hartree Fock one center treatment
   AEXX    =    0.0000 exact exchange contribution

 Linear response parameters
   LEPSILON=     F    determine dielectric tensor
   LRPA    =     F    only Hartree local field effects (RPA)
   LNABLA  =     F    use nabla operator in PAW spheres
   LVEL    =     F    velocity operator in full k-point grid
   CSHIFT  =0.1000    complex shift for real part using Kramers Kronig
   OMEGAMAX=  -1.0    maximum frequency
   DEG_THRESHOLD= 0.2000000E-02 threshold for treating states as degnerate
   RTIME   =   -0.100 relaxation time in fs
  (WPLASMAI=    0.000 imaginary part of plasma frequency in eV, 0.658/RTIME)
   DFIELD  = 0.0000000 0.0000000 0.0000000 field for delta impulse in time

  Optional k-point grid parameters
   LKPOINTS_OPT  =     F    use optional k-point grid
   KPOINTS_OPT_MODE=     1    mode for optional k-point grid

 Orbital magnetization related:
   ORBITALMAG=     F  switch on orbital magnetization
   LCHIMAG   =     F  perturbation theory with respect to B field
   DQ        =  0.001000  dq finite difference perturbation B field
   LLRAUG    =     F  two centre corrections for induced B field



--------------------------------------------------------------------------------------------------------


 Static calculation
 charge density and potential will be updated during run
 non-spin polarized calculation
 Variant of blocked Davidson
 Davidson routine will perform the subspace rotation
 perform sub-space diagonalisation
    after iterative eigenvector-optimisation
 modified Broyden-mixing scheme, WC =      100.0
 initial mixing is a Kerker type mixing with AMIX =  0.4000 and BMIX =      1.0000
 Hartree-type preconditioning will be used
 using additional bands           41
 real space projection scheme for non local part
 use partial core corrections
 calculate Harris-corrections to forces   (improved forces if not selfconsistent)
 use gradient corrections 
 use of overlap-Matrix (Vanderbilt PP)
 Methfessel and Paxton  Order N= 1 SIGMA  =   0.03


--------------------------------------------------------------------------------------------------------


  energy-cutoff  :      400.00
  volume of cell :      663.81
      direct lattice vectors                 reciprocal lattice vectors
     9.594047733  0.000000000  0.000000000     0.104231293  0.000000000  0.000000000
     0.000000000  9.866698251  0.000000000     0.000000000  0.101351027  0.000000000
     0.000000000  0.000000000  7.012444903     0.000000000  0.000000000  0.142603616

  length of vectors
     9.594047733  9.866698251  7.012444903     0.104231293  0.101351027  0.142603616



 k-points in units of 2pi/SCALE and weight: k-points                                
   0.01302891  0.01266888  0.01782545       0.125
   0.03908673  0.01266888  0.01782545       0.125
   0.01302891  0.03800664  0.01782545       0.125
   0.03908673  0.03800664  0.01782545       0.125
   0.01302891  0.01266888  0.05347636       0.125
   0.03908673  0.01266888  0.05347636       0.125
   0.01302891  0.03800664  0.05347636       0.125
   0.03908673  0.03800664  0.05347636       0.125

 k-points in reciprocal lattice and weights: k-points                                
   0.12500000  0.12500000  0.12500000       0.125
   0.37500000  0.12500000  0.12500000       0.125
   0.12500000  0.37500000  0.12500000       0.125
   0.37500000  0.37500000  0.12500000       0.125
   0.12500000  0.12500000  0.37500000       0.125
   0.37500000  0.12500000  0.37500000       0.125
   0.12500000  0.37500000  0.37500000       0.125
   0.37500000  0.37500000  0.37500000       0.125

 position of ions in fractional coordinates (direct lattice) 
   0.12615050  0.01569722  0.38998837
   0.12615050  0.51569723  0.38998837
   0.62615052  0.01569722  0.38998837
   0.62615052  0.51569723  0.38998837
   0.12615050  0.23430279  0.61001160
   0.12615050  0.73430277  0.61001160
   0.62615052  0.23430279  0.61001160
   0.62615052  0.73430277  0.61001160
   0.12384950  0.26569723  0.11001161
   0.12384950  0.76569723  0.11001161
   0.62384948  0.26569723  0.11001161
   0.62384948  0.76569723  0.11001161
   0.12384950  0.48430277  0.88998840
   0.12384950  0.98430277  0.88998840
   0.62384948  0.48430277  0.88998840
   0.62384948  0.98430277  0.88998840
   0.37384948  0.48430277  0.61001160
   0.37384948  0.98430277  0.61001160
   0.87384948  0.48430277  0.61001160
   0.87384948  0.98430277  0.61001160
   0.37384948  0.26569723  0.38998837
   0.37384948  0.76569723  0.38998837
   0.87384948  0.26569723  0.38998837
   0.87384948  0.76569723  0.38998837
   0.37615052  0.23430279  0.88998840
   0.37615052  0.73430277  0.88998840
   0.87615052  0.23430279  0.88998840
   0.87615052  0.73430277  0.88998840
   0.37615052  0.01569722  0.11001161
   0.37615052  0.51569723  0.11001161
   0.87615052  0.01569722  0.11001161
   0.87615052  0.51569723  0.11001161
   0.05353627  0.05119550  0.65414856
   0.05353627  0.55119553  0.65414856
   0.55353624  0.05119550  0.65414856
   0.55353624  0.55119553  0.65414856
   0.05353627  0.19880450  0.34585147
   0.05353627  0.69880447  0.34585147
   0.55353624  0.19880450  0.34585147
   0.55353624  0.69880447  0.34585147
   0.19646373  0.30119550  0.84585144
   0.19646373  0.80119553  0.84585144
   0.69646370  0.30119550  0.84585144
   0.69646370  0.80119553  0.84585144
   0.19646373  0.44880450  0.15414852
   0.19646373  0.94880447  0.15414852
   0.69646370  0.44880450  0.15414852
   0.69646370  0.94880447  0.15414852
   0.44646376  0.44880450  0.34585147
   0.44646376  0.94880447  0.34585147
   0.94646376  0.44880450  0.34585147
   0.94646376  0.94880447  0.34585147
   0.44646376  0.30119550  0.65414856
   0.44646376  0.80119553  0.65414856
   0.94646376  0.30119550  0.65414856
   0.94646376  0.80119553  0.65414856
   0.30353624  0.19880450  0.15414852
   0.30353624  0.69880447  0.15414852
   0.80353624  0.19880450  0.15414852
   0.80353624  0.69880447  0.15414852
   0.30353624  0.05119550  0.84585144
   0.30353624  0.55119553  0.84585144
   0.80353624  0.05119550  0.84585144
   0.80353624  0.55119553  0.84585144
   0.02509402  0.12500000  0.00000000
   0.02509402  0.62500000  0.00000000
   0.52509405  0.12500000  0.00000000
   0.52509405  0.62500000  0.00000000
   0.22490598  0.37500000  0.50000000
   0.22490598  0.87500000  0.50000000
   0.72490601  0.37500000  0.50000000
   0.72490601  0.87500000  0.50000000
   0.47490595  0.37500000  0.00000000
   0.47490595  0.87500000  0.00000000
   0.97490595  0.37500000  0.00000000
   0.97490595  0.87500000  0.00000000
   0.27509405  0.12500000  0.50000000
   0.27509405  0.62500000  0.50000000
   0.77509405  0.12500000  0.50000000
   0.77509405  0.62500000  0.50000000

 position of ions in cartesian coordinates  (Angst):
   1.21029396  0.15487970  2.73477194
   1.21029396  5.08822893  2.73477194
   6.00731797  0.15487970  2.73477194
   6.00731797  5.08822893  2.73477194
   1.21029396  2.31179490  4.27767275
   1.21029396  7.24514388  4.27767275
   6.00731797  2.31179490  4.27767275
   6.00731797  7.24514388  4.27767275
   1.18821797  2.62155437  0.77145035
   1.18821797  7.55490350  0.77145035
   5.98524169  2.62155437  0.77145035
   5.98524169  7.55490350  0.77145035
   1.18821797  4.77846932  6.24099460
   1.18821797  9.71181844  6.24099460
   5.98524169  4.77846932  6.24099460
   5.98524169  9.71181844  6.24099460
   3.58672976  4.77846932  4.27767275
   3.58672976  9.71181844  4.27767275
   8.38375362  4.77846932  4.27767275
   8.38375362  9.71181844  4.27767275
   3.58672976  2.62155437  2.73477194
   3.58672976  7.55490350  2.73477194
   8.38375362  2.62155437  2.73477194
   8.38375362  7.55490350  2.73477194
   3.60880604  2.31179490  6.24099460
   3.60880604  7.24514388  6.24099460
   8.40582991  2.31179490  6.24099460
   8.40582991  7.24514388  6.24099460
   3.60880604  0.15487970  0.77145035
   3.60880604  5.08822893  0.77145035
   8.40582991  0.15487970  0.77145035
   8.40582991  5.08822893  0.77145035
   0.51362949  0.50513055  4.58718074
   0.51362949  5.43847997  4.58718074
   5.31065314  0.50513055  4.58718074
   5.31065314  5.43847997  4.58718074
   0.51362949  1.96154402  2.42526437
   0.51362949  6.89489285  2.42526437
   5.31065314  1.96154402  2.42526437
   5.31065314  6.89489285  2.42526437
   1.88488238  2.97180511  5.93148661
   1.88488238  7.90515453  5.93148661
   6.68190596  2.97180511  5.93148661
   6.68190596  7.90515453  5.93148661
   1.88488238  4.42821858  1.08095798
   1.88488238  9.36156741  1.08095798
   6.68190596  4.42821858  1.08095798
   6.68190596  9.36156741  1.08095798
   4.28339460  4.42821858  2.42526437
   4.28339460  9.36156741  2.42526437
   9.08041846  4.42821858  2.42526437
   9.08041846  9.36156741  2.42526437
   4.28339460  2.97180511  4.58718074
   4.28339460  7.90515453  4.58718074
   9.08041846  2.97180511  4.58718074
   9.08041846  7.90515453  4.58718074
   2.91214120  1.96154402  1.08095798
   2.91214120  6.89489285  1.08095798
   7.70916507  1.96154402  1.08095798
   7.70916507  6.89489285  1.08095798
   2.91214120  0.50513055  5.93148661
   2.91214120  5.43847997  5.93148661
   7.70916507  0.50513055  5.93148661
   7.70916507  5.43847997  5.93148661
   0.24075326  1.23333728  0.00000000
   0.24075326  6.16668641  0.00000000
   5.03777738  1.23333728  0.00000000
   5.03777738  6.16668641  0.00000000
   2.15775871  3.70001184  3.50622245
   2.15775871  8.63336097  3.50622245
   6.95478286  3.70001184  3.50622245
   6.95478286  8.63336097  3.50622245
   4.55627036  3.70001184  0.00000000
   4.55627036  8.63336097  0.00000000
   9.35329422  3.70001184  0.00000000
   9.35329422  8.63336097  0.00000000
   2.63926544  1.23333728  3.50622245
   2.63926544  6.16668641  3.50622245
   7.43628931  1.23333728  3.50622245
   7.43628931  6.16668641  3.50622245



--------------------------------------------------------------------------------------------------------


 k-point   1 :   0.1250 0.1250 0.1250  plane waves:   12076
 k-point   2 :   0.3750 0.1250 0.1250  plane waves:   12047
 k-point   3 :   0.1250 0.3750 0.1250  plane waves:   12079
 k-point   4 :   0.3750 0.3750 0.1250  plane waves:   12063
 k-point   5 :   0.1250 0.1250 0.3750  plane waves:   12053
 k-point   6 :   0.3750 0.1250 0.3750  plane waves:   12037
 k-point   7 :   0.1250 0.3750 0.3750  plane waves:   12062
 k-point   8 :   0.3750 0.3750 0.3750  plane waves:   12063

 maximum and minimum number of plane-waves per node :     12079    12037

 maximum number of plane-waves:     12079
 maximum index in each direction: 
   IXMAX=   15   IYMAX=   15   IZMAX=   11
   IXMIN=  -16   IYMIN=  -16   IZMIN=  -11


 serial   3D FFT for wavefunctions
 parallel 3D FFT for charge:
    minimum data exchange during FFTs selected (reduces bandwidth)


 total amount of memory used by VASP MPI-rank0   482594. kBytes
=======================================================================

   base      :      30000. kBytes
   nonlr-proj:       8552. kBytes
   fftplans  :      23216. kBytes
   grid      :      41250. kBytes
   one-center:        245. kBytes
   wavefun   :     379331. kBytes

     INWAV:  cpu time      0.0001: real time      0.0003
 Broyden mixing: mesh for mixing (old mesh)
   NGX = 31   NGY = 33   NGZ = 23
  (NGX  = 96   NGY  = 96   NGZ  = 72)
  gives a total of  23529 points

 initial charge density was supplied:
 charge density of overlapping atoms calculated
 number of electron     384.0000000 magnetization 
 keeping initial charge density in first step


--------------------------------------------------------------------------------------------------------


 Maximum index for non-local projection operator         1347
 Maximum index for augmentation-charges         4725 (set IRDMAX)


--------------------------------------------------------------------------------------------------------


 First call to EWALD:  gamma=   0.203
 Maximum number of real-space cells 3x 2x 3
 Maximum number of reciprocal cells 3x 3x 2

    FEWALD:  cpu time      0.0742: real time      0.0746


--------------------------------------- Iteration      1(   1)  ---------------------------------------


    POTLOK:  cpu time      0.3743: real time      0.3771
    SETDIJ:  cpu time      0.0819: real time      0.0824
     EDDAV:  cpu time     46.0568: real time     46.5508
       DOS:  cpu time      0.0024: real time      0.0026
    --------------------------------------------
      LOOP:  cpu time     46.5155: real time     47.0130

 eigenvalue-minimisations  :  3728
 total energy-change (2. order) : 0.1857266E+04  (-0.1769697E+05)
 number of electron     384.0000000 magnetization 
 augmentation part      384.0000000 magnetization 

 Free energy of the ion-electron system (eV)
  ---------------------------------------------------
  alpha Z        PSCENC =       622.33316914
  Ewald energy   TEWEN  =    -19514.91475959
  -Hartree energ DENC   =     -4915.34368845
  -exchange      EXHF   =         0.00000000
  -V(xc)+E(xc)   XCENC  =       534.99681130
  PAW double counting   =     18752.77991877   -17816.57094691
  entropy T*S    EENTRO =        -0.00021182
  eigenvalues    EBANDS =      1732.13153089
  atomic energy  EATOM  =     22461.85434800
  Solvation  Ediel_sol  =         0.00000000
  ---------------------------------------------------
  free energy    TOTEN  =      1857.26617131 eV

  energy without entropy =     1857.26638314  energy(sigma->0) =     1857.26624192


--------------------------------------------------------------------------------------------------------




--------------------------------------- Iteration      1(   2)  ---------------------------------------


     EDDAV:  cpu time     53.3999: real time     53.9322
       DOS:  cpu time      0.0022: real time      0.0024
    --------------------------------------------
      LOOP:  cpu time     53.4021: real time     53.9346

 eigenvalue-minimisations  :  4384
 total energy-change (2. order) :-0.2386607E+04  (-0.2336949E+04)
 number of electron     384.0000000 magnetization 
 augmentation part      384.0000000 magnetization 

 Free energy of the ion-electron system (eV)
  ---------------------------------------------------
  alpha Z        PSCENC =       622.33316914
  Ewald energy   TEWEN  =    -19514.91475959
  -Hartree energ DENC   =     -4915.34368845
  -exchange      EXHF   =         0.00000000
  -V(xc)+E(xc)   XCENC  =       534.99681130
  PAW double counting   =     18752.77991877   -17816.57094691
  entropy T*S    EENTRO =         0.00019010
  eigenvalues    EBANDS =      -654.47541912
  atomic energy  EATOM  =     22461.85434800
  Solvation  Ediel_sol  =         0.00000000
  ---------------------------------------------------
  free energy    TOTEN  =      -529.34037678 eV

  energy without entropy =     -529.34056688  energy(sigma->0) =     -529.34044015


--------------------------------------------------------------------------------------------------------




--------------------------------------- Iteration      1(   3)  ---------------------------------------


     EDDAV:  cpu time     53.2365: real time     53.7472
       DOS:  cpu time      0.0024: real time      0.0026
    --------------------------------------------
      LOOP:  cpu time     53.2389: real time     53.7498

 eigenvalue-minimisations  :  4352
 total energy-change (2. order) :-0.1250431E+03  (-0.1244736E+03)
 number of electron     384.0000000 magnetization 
 augmentation part      384.0000000 magnetization 

 Free energy of the ion-electron system (eV)
  ---------------------------------------------------
  alpha Z        PSCENC =       622.33316914
  Ewald energy   TEWEN  =    -19514.91475959
  -Hartree energ DENC   =     -4915.34368845
  -exchange      EXHF   =         0.00000000
  -V(xc)+E(xc)   XCENC  =       534.99681130
  PAW double counting   =     18752.77991877   -17816.57094691
  entropy T*S    EENTRO =         0.00151112
  eigenvalues    EBANDS =      -779.51981308
  atomic energy  EATOM  =     22461.85434800
  Solvation  Ediel_sol  =         0.00000000
  ---------------------------------------------------
  free energy    TOTEN  =      -654.38344971 eV

  energy without entropy =     -654.38496083  energy(sigma->0) =     -654.38395342


--------------------------------------------------------------------------------------------------------




--------------------------------------- Iteration      1(   4)  ---------------------------------------


     EDDAV:  cpu time     52.3769: real time     52.8825
       DOS:  cpu time      0.0024: real time      0.0026
    --------------------------------------------
      LOOP:  cpu time     52.3793: real time     52.8851

 eigenvalue-minimisations  :  4328
 total energy-change (2. order) :-0.1490648E+01  (-0.1485031E+01)
 number of electron     384.0000000 magnetization 
 augmentation part      384.0000000 magnetization 

 Free energy of the ion-electron system (eV)
  ---------------------------------------------------
  alpha Z        PSCENC =       622.33316914
  Ewald energy   TEWEN  =    -19514.91475959
  -Hartree energ DENC   =     -4915.34368845
  -exchange      EXHF   =         0.00000000
  -V(xc)+E(xc)   XCENC  =       534.99681130
  PAW double counting   =     18752.77991877   -17816.57094691
  entropy T*S    EENTRO =         0.00152822
  eigenvalues    EBANDS =      -781.01047792
  atomic energy  EATOM  =     22461.85434800
  Solvation  Ediel_sol  =         0.00000000
  ---------------------------------------------------
  free energy    TOTEN  =      -655.87409746 eV

  energy without entropy =     -655.87562568  energy(sigma->0) =     -655.87460687


--------------------------------------------------------------------------------------------------------




--------------------------------------- Iteration      1(   5)  ---------------------------------------


     EDDAV:  cpu time     52.4038: real time     53.5874
       DOS:  cpu time      0.0024: real time      0.0027
    CHARGE:  cpu time      1.4281: real time      1.4425
    MIXING:  cpu time      0.0136: real time      0.0137
    --------------------------------------------
      LOOP:  cpu time     53.8480: real time     55.0464

 eigenvalue-minimisations  :  4336
 total energy-change (2. order) :-0.2946897E-01  (-0.2941720E-01)
 number of electron     384.0001582 magnetization 
 augmentation part       37.3314493 magnetization 

 Broyden mixing:
  rms(total) = 0.48981E+01    rms(broyden)= 0.48963E+01
  rms(prec ) = 0.64493E+01
  weight for this iteration     100.00

 Free energy of the ion-electron system (eV)
  ---------------------------------------------------
  alpha Z        PSCENC =       622.33316914
  Ewald energy   TEWEN  =    -19514.91475959
  -Hartree energ DENC   =     -4915.34368845
  -exchange      EXHF   =         0.00000000
  -V(xc)+E(xc)   XCENC  =       534.99681130
  PAW double counting   =     18752.77991877   -17816.57094691
  entropy T*S    EENTRO =         0.00152938
  eigenvalues    EBANDS =      -781.03994806
  atomic energy  EATOM  =     22461.85434800
  Solvation  Ediel_sol  =         0.00000000
  ---------------------------------------------------
  free energy    TOTEN  =      -655.90356643 eV

  energy without entropy =     -655.90509581  energy(sigma->0) =     -655.90407622


--------------------------------------------------------------------------------------------------------




--------------------------------------- Iteration      1(   6)  ---------------------------------------


    POTLOK:  cpu time      0.3739: real time      0.3771
    SETDIJ:  cpu time      0.0803: real time      0.0829
     EDDAV:  cpu time     50.4478: real time     51.0686
       DOS:  cpu time      0.0021: real time      0.0023
    CHARGE:  cpu time      1.3755: real time      1.3909
    MIXING:  cpu time      0.0113: real time      0.0115
    --------------------------------------------
      LOOP:  cpu time     52.2909: real time     52.9333

 eigenvalue-minimisations  :  4160
 total energy-change (2. order) : 0.6432026E+02  (-0.2762223E+02)
 number of electron     384.0001357 magnetization 
 augmentation part       31.6437934 magnetization 

 Broyden mixing:
  rms(total) = 0.17049E+01    rms(broyden)= 0.17024E+01
  rms(prec ) = 0.18999E+01
  weight for this iteration     100.00

 eigenvalues of (default mixing * dielectric matrix)
  average eigenvalue GAMMA=   0.9663
  0.9663

 Free energy of the ion-electron system (eV)
  ---------------------------------------------------
  alpha Z        PSCENC =       622.33316914
  Ewald energy   TEWEN  =    -19514.91475959
  -Hartree energ DENC   =     -5657.77472628
  -exchange      EXHF   =         0.00000000
  -V(xc)+E(xc)   XCENC  =       587.48083144
  PAW double counting   =     24242.44244621   -23320.59529431
  entropy T*S    EENTRO =         0.00063242
  eigenvalues    EBANDS =       -12.40995518
  atomic energy  EATOM  =     22461.85434800
  Solvation  Ediel_sol  =         0.00000000
  ---------------------------------------------------
  free energy    TOTEN  =      -591.58330816 eV

  energy without entropy =     -591.58394058  energy(sigma->0) =     -591.58351897


--------------------------------------------------------------------------------------------------------




--------------------------------------- Iteration      1(   7)  ---------------------------------------


    POTLOK:  cpu time      0.3201: real time      0.3223
    SETDIJ:  cpu time      0.0805: real time      0.0808
     EDDAV:  cpu time     53.1214: real time     53.7943
       DOS:  cpu time      0.0024: real time      0.0024
    CHARGE:  cpu time      1.3838: real time      1.3946
    MIXING:  cpu time      0.0131: real time      0.0132
    --------------------------------------------
      LOOP:  cpu time     54.9213: real time     55.6075

 eigenvalue-minimisations  :  4472
 total energy-change (2. order) : 0.3121027E-01  (-0.6202325E+00)
 number of electron     384.0001352 magnetization 
 augmentation part       31.2572073 magnetization 

 Broyden mixing:
  rms(total) = 0.94075E+00    rms(broyden)= 0.94055E+00
  rms(prec ) = 0.10604E+01
  weight for this iteration     100.00

 eigenvalues of (default mixing * dielectric matrix)
  average eigenvalue GAMMA=   1.3130
  1.2068  1.4192

 Free energy of the ion-electron system (eV)
  ---------------------------------------------------
  alpha Z        PSCENC =       622.33316914
  Ewald energy   TEWEN  =    -19514.91475959
  -Hartree energ DENC   =     -5725.44995286
  -exchange      EXHF   =         0.00000000
  -V(xc)+E(xc)   XCENC  =       593.25291333
  PAW double counting   =     28395.38665168   -27473.04055036
  entropy T*S    EENTRO =         0.00056985
  eigenvalues    EBANDS =        49.02551292
  atomic energy  EATOM  =     22461.85434800
  Solvation  Ediel_sol  =         0.00000000
  ---------------------------------------------------
  free energy    TOTEN  =      -591.55209789 eV

  energy without entropy =     -591.55266774  energy(sigma->0) =     -591.55228784


--------------------------------------------------------------------------------------------------------




--------------------------------------- Iteration      1(   8)  ---------------------------------------


    POTLOK:  cpu time      0.3523: real time      0.3550
    SETDIJ:  cpu time      0.0826: real time      0.0831
     EDDAV:  cpu time     51.6503: real time     52.1703
       DOS:  cpu time      0.0024: real time      0.0026
    CHARGE:  cpu time      1.3908: real time      1.4022
    MIXING:  cpu time      0.0137: real time      0.0138
    --------------------------------------------
      LOOP:  cpu time     53.4920: real time     54.0270

 eigenvalue-minimisations  :  4328
 total energy-change (2. order) :-0.6224733E-02  (-0.4671200E-01)
 number of electron     384.0001356 magnetization 
 augmentation part       31.3534356 magnetization 

 Broyden mixing:
  rms(total) = 0.28816E+00    rms(broyden)= 0.28815E+00
  rms(prec ) = 0.33968E+00
  weight for this iteration     100.00

 eigenvalues of (default mixing * dielectric matrix)
  average eigenvalue GAMMA=   1.5639
  2.5382  1.0767  1.0767

 Free energy of the ion-electron system (eV)
  ---------------------------------------------------
  alpha Z        PSCENC =       622.33316914
  Ewald energy   TEWEN  =    -19514.91475959
  -Hartree energ DENC   =     -5745.79287137
  -exchange      EXHF   =         0.00000000
  -V(xc)+E(xc)   XCENC  =       596.06221479
  PAW double counting   =     31638.54554808   -30715.49152777
  entropy T*S    EENTRO =         0.00059214
  eigenvalues    EBANDS =        65.84496395
  atomic energy  EATOM  =     22461.85434800
  Solvation  Ediel_sol  =         0.00000000
  ---------------------------------------------------
  free energy    TOTEN  =      -591.55832262 eV

  energy without entropy =     -591.55891476  energy(sigma->0) =     -591.55852000


--------------------------------------------------------------------------------------------------------




--------------------------------------- Iteration      1(   9)  ---------------------------------------


    POTLOK:  cpu time      0.3542: real time      0.3569
    SETDIJ:  cpu time      0.0935: real time      0.0940
     EDDAV:  cpu time     50.9024: real time     51.4596
       DOS:  cpu time      0.0021: real time      0.0023
    CHARGE:  cpu time      1.3836: real time      1.3954
    MIXING:  cpu time      0.0129: real time      0.0130
    --------------------------------------------
      LOOP:  cpu time     52.7487: real time     53.3212

 eigenvalue-minimisations  :  4240
 total energy-change (2. order) :-0.4654493E-01  (-0.1534767E-01)
 number of electron     384.0001353 magnetization 
 augmentation part       31.2864454 magnetization 

 Broyden mixing:
  rms(total) = 0.69483E-01    rms(broyden)= 0.69471E-01
  rms(prec ) = 0.72196E-01
  weight for this iteration     100.00

 eigenvalues of (default mixing * dielectric matrix)
  average eigenvalue GAMMA=   1.7384
  1.0299  1.0299  2.4469  2.4469

 Free energy of the ion-electron system (eV)
  ---------------------------------------------------
  alpha Z        PSCENC =       622.33316914
  Ewald energy   TEWEN  =    -19514.91475959
  -Hartree energ DENC   =     -5774.92750041
  -exchange      EXHF   =         0.00000000
  -V(xc)+E(xc)   XCENC  =       598.96118757
  PAW double counting   =     33084.19207519   -32161.17478599
  entropy T*S    EENTRO =         0.00058878
  eigenvalues    EBANDS =        92.07080975
  atomic energy  EATOM  =     22461.85434800
  Solvation  Ediel_sol  =         0.00000000
  ---------------------------------------------------
  free energy    TOTEN  =      -591.60486755 eV

  energy without entropy =     -591.60545633  energy(sigma->0) =     -591.60506381


--------------------------------------------------------------------------------------------------------




--------------------------------------- Iteration      1(  10)  ---------------------------------------


    POTLOK:  cpu time      0.3299: real time      0.3325
    SETDIJ:  cpu time      0.0807: real time      0.0812
     EDDAV:  cpu time     51.8703: real time     52.4580
       DOS:  cpu time      0.0024: real time      0.0026
    CHARGE:  cpu time      1.3956: real time      1.4073
    MIXING:  cpu time      0.0148: real time      0.0149
    --------------------------------------------
      LOOP:  cpu time     53.6937: real time     54.2965

 eigenvalue-minimisations  :  4352
 total energy-change (2. order) :-0.6270497E-02  (-0.2790044E-02)
 number of electron     384.0001354 magnetization 
 augmentation part       31.2630049 magnetization 

 Broyden mixing:
  rms(total) = 0.31951E-01    rms(broyden)= 0.31928E-01
  rms(prec ) = 0.38639E-01
  weight for this iteration     100.00

 eigenvalues of (default mixing * dielectric matrix)
  average eigenvalue GAMMA=   1.5333
  2.6299  2.3092  1.0098  1.0098  0.7079

 Free energy of the ion-electron system (eV)
  ---------------------------------------------------
  alpha Z        PSCENC =       622.33316914
  Ewald energy   TEWEN  =    -19514.91475959
  -Hartree energ DENC   =     -5777.44833393
  -exchange      EXHF   =         0.00000000
  -V(xc)+E(xc)   XCENC  =       599.19716068
  PAW double counting   =     32658.60641725   -31735.66086197
  entropy T*S    EENTRO =         0.00057253
  eigenvalues    EBANDS =        94.42114984
  atomic energy  EATOM  =     22461.85434800
  Solvation  Ediel_sol  =         0.00000000
  ---------------------------------------------------
  free energy    TOTEN  =      -591.61113805 eV

  energy without entropy =     -591.61171058  energy(sigma->0) =     -591.61132890


--------------------------------------------------------------------------------------------------------




--------------------------------------- Iteration      1(  11)  ---------------------------------------


    POTLOK:  cpu time      0.3316: real time      0.3341
    SETDIJ:  cpu time      0.0797: real time      0.0801
     EDDAV:  cpu time     51.5527: real time     52.0654
       DOS:  cpu time      0.0024: real time      0.0026
    CHARGE:  cpu time      1.4072: real time      1.4192
    MIXING:  cpu time      0.0162: real time      0.0163
    --------------------------------------------
      LOOP:  cpu time     53.3898: real time     53.9177

 eigenvalue-minimisations  :  4320
 total energy-change (2. order) : 0.1260368E-02  (-0.5778562E-03)
 number of electron     384.0001354 magnetization 
 augmentation part       31.2784792 magnetization 

 Broyden mixing:
  rms(total) = 0.19692E-01    rms(broyden)= 0.19689E-01
  rms(prec ) = 0.22078E-01
  weight for this iteration     100.00

 eigenvalues of (default mixing * dielectric matrix)
  average eigenvalue GAMMA=   1.5618
  2.7932  2.4868  1.0272  1.0272  1.0182  1.0182

 Free energy of the ion-electron system (eV)
  ---------------------------------------------------
  alpha Z        PSCENC =       622.33316914
  Ewald energy   TEWEN  =    -19514.91475959
  -Hartree energ DENC   =     -5776.37324630
  -exchange      EXHF   =         0.00000000
  -V(xc)+E(xc)   XCENC  =       599.13206063
  PAW double counting   =     32657.29309507   -31734.31458864
  entropy T*S    EENTRO =         0.00058071
  eigenvalues    EBANDS =        93.37946329
  atomic energy  EATOM  =     22461.85434800
  Solvation  Ediel_sol  =         0.00000000
  ---------------------------------------------------
  free energy    TOTEN  =      -591.60987768 eV

  energy without entropy =     -591.61045840  energy(sigma->0) =     -591.61007125


--------------------------------------------------------------------------------------------------------




--------------------------------------- Iteration      1(  12)  ---------------------------------------


    POTLOK:  cpu time      0.3441: real time      0.3467
    SETDIJ:  cpu time      0.0834: real time      0.0838
     EDDAV:  cpu time     51.1740: real time     51.7762
       DOS:  cpu time      0.0023: real time      0.0023
    CHARGE:  cpu time      1.4063: real time      1.4189
    MIXING:  cpu time      0.0167: real time      0.0168
    --------------------------------------------
      LOOP:  cpu time     53.0268: real time     53.6447

 eigenvalue-minimisations  :  4280
 total energy-change (2. order) :-0.1835219E-04  (-0.3235027E-03)
 number of electron     384.0001354 magnetization 
 augmentation part       31.2798669 magnetization 

 Broyden mixing:
  rms(total) = 0.51962E-02    rms(broyden)= 0.51745E-02
  rms(prec ) = 0.63178E-02
  weight for this iteration     100.00

 eigenvalues of (default mixing * dielectric matrix)
  average eigenvalue GAMMA=   1.5077
  2.8574  2.4614  1.1122  1.1122  1.0510  0.9798  0.9798

 Free energy of the ion-electron system (eV)
  ---------------------------------------------------
  alpha Z        PSCENC =       622.33316914
  Ewald energy   TEWEN  =    -19514.91475959
  -Hartree energ DENC   =     -5776.40436451
  -exchange      EXHF   =         0.00000000
  -V(xc)+E(xc)   XCENC  =       599.13953944
  PAW double counting   =     32569.97633327   -31647.00985971
  entropy T*S    EENTRO =         0.00058515
  eigenvalues    EBANDS =        93.41511277
  atomic energy  EATOM  =     22461.85434800
  Solvation  Ediel_sol  =         0.00000000
  ---------------------------------------------------
  free energy    TOTEN  =      -591.60989604 eV

  energy without entropy =     -591.61048118  energy(sigma->0) =     -591.61009108


--------------------------------------------------------------------------------------------------------




--------------------------------------- Iteration      1(  13)  ---------------------------------------


    POTLOK:  cpu time      0.3376: real time      0.3401
    SETDIJ:  cpu time      0.0827: real time      0.0831
     EDDAV:  cpu time     51.0318: real time     51.6177
       DOS:  cpu time      0.0023: real time      0.0025
    CHARGE:  cpu time      1.4239: real time      1.4378
    MIXING:  cpu time      0.0172: real time      0.0173
    --------------------------------------------
      LOOP:  cpu time     52.8954: real time     53.4984

 eigenvalue-minimisations  :  4256
 total energy-change (2. order) : 0.2772436E-04  (-0.4472577E-04)
 number of electron     384.0001354 magnetization 
 augmentation part       31.2849107 magnetization 

 Broyden mixing:
  rms(total) = 0.21139E-02    rms(broyden)= 0.21109E-02
  rms(prec ) = 0.24109E-02
  weight for this iteration     100.00

 eigenvalues of (default mixing * dielectric matrix)
  average eigenvalue GAMMA=   1.4992
  2.8577  2.4439  1.7826  0.9940  0.9940  1.0438  1.0438  0.8339

 Free energy of the ion-electron system (eV)
  ---------------------------------------------------
  alpha Z        PSCENC =       622.33316914
  Ewald energy   TEWEN  =    -19514.91475959
  -Hartree energ DENC   =     -5775.79413300
  -exchange      EXHF   =         0.00000000
  -V(xc)+E(xc)   XCENC  =       599.09658783
  PAW double counting   =     32563.73708517   -31640.75345393
  entropy T*S    EENTRO =         0.00058419
  eigenvalues    EBANDS =        92.83070387
  atomic energy  EATOM  =     22461.85434800
  Solvation  Ediel_sol  =         0.00000000
  ---------------------------------------------------
  free energy    TOTEN  =      -591.60986831 eV

  energy without entropy =     -591.61045251  energy(sigma->0) =     -591.61006304


--------------------------------------------------------------------------------------------------------




--------------------------------------- Iteration      1(  14)  ---------------------------------------


    POTLOK:  cpu time      0.3380: real time      0.3407
    SETDIJ:  cpu time      0.0797: real time      0.0801
     EDDAV:  cpu time     50.4990: real time     51.0149
       DOS:  cpu time      0.0024: real time      0.0026
    CHARGE:  cpu time      1.4182: real time      1.4325
    MIXING:  cpu time      0.0185: real time      0.0186
    --------------------------------------------
      LOOP:  cpu time     52.3558: real time     52.8895

 eigenvalue-minimisations  :  4336
 total energy-change (2. order) : 0.2551813E-05  (-0.3957804E-05)
 number of electron     384.0001354 magnetization 
 augmentation part       31.2842062 magnetization 

 Broyden mixing:
  rms(total) = 0.82902E-03    rms(broyden)= 0.82829E-03
  rms(prec ) = 0.91025E-03
  weight for this iteration     100.00

 eigenvalues of (default mixing * dielectric matrix)
  average eigenvalue GAMMA=   1.5213
  2.9423  2.5378  2.1546  0.9878  0.9878  1.0529  1.0529  0.9575  1.0181

 Free energy of the ion-electron system (eV)
  ---------------------------------------------------
  alpha Z        PSCENC =       622.33316914
  Ewald energy   TEWEN  =    -19514.91475959
  -Hartree energ DENC   =     -5775.87233751
  -exchange      EXHF   =         0.00000000
  -V(xc)+E(xc)   XCENC  =       599.09972943
  PAW double counting   =     32559.62207251   -31636.63773319
  entropy T*S    EENTRO =         0.00058390
  eigenvalues    EBANDS =        92.90506156
  atomic energy  EATOM  =     22461.85434800
  Solvation  Ediel_sol  =         0.00000000
  ---------------------------------------------------
  free energy    TOTEN  =      -591.60986576 eV

  energy without entropy =     -591.61044966  energy(sigma->0) =     -591.61006039


--------------------------------------------------------------------------------------------------------




--------------------------------------- Iteration      1(  15)  ---------------------------------------


    POTLOK:  cpu time      0.3441: real time      0.3474
    SETDIJ:  cpu time      0.0799: real time      0.0804
     EDDAV:  cpu time     35.3783: real time     35.7424
       DOS:  cpu time      0.0024: real time      0.0026
    --------------------------------------------
      LOOP:  cpu time     35.8047: real time     36.1727

 eigenvalue-minimisations  :  2896
 total energy-change (2. order) : 0.2992056E-06  (-0.3121510E-06)
 number of electron     384.0001354 magnetization 
 augmentation part       31.2842062 magnetization 

 Free energy of the ion-electron system (eV)
  ---------------------------------------------------
  alpha Z        PSCENC =       622.33316914
  Ewald energy   TEWEN  =    -19514.91475959
  -Hartree energ DENC   =     -5775.93681459
  -exchange      EXHF   =         0.00000000
  -V(xc)+E(xc)   XCENC  =       599.10301927
  PAW double counting   =     32555.89477705   -31632.90904973
  entropy T*S    EENTRO =         0.00058385
  eigenvalues    EBANDS =        92.96486114
  atomic energy  EATOM  =     22461.85434800
  Solvation  Ediel_sol  =         0.00000000
  ---------------------------------------------------
  free energy    TOTEN  =      -591.60986546 eV

  energy without entropy =     -591.61044931  energy(sigma->0) =     -591.61006008


--------------------------------------------------------------------------------------------------------




 average (electrostatic) potential at core
  the test charge radii are     1.0406  0.7215
  (the norm of the test charge is              1.0000)
       1 -71.1101       2 -71.1101       3 -71.1101       4 -71.1101       5 -71.1101
       6 -71.1101       7 -71.1101       8 -71.1101       9 -71.1101      10 -71.1101
      11 -71.1101      12 -71.1101      13 -71.1101      14 -71.1101      15 -71.1101
      16 -71.1101      17 -71.1101      18 -71.1101      19 -71.1101      20 -71.1101
      21 -71.1101      22 -71.1101      23 -71.1101      24 -71.1101      25 -71.1101
      26 -71.1101      27 -71.1101      28 -71.1101      29 -71.1101      30 -71.1101
      31 -71.1101      32 -71.1101      33 -66.6918      34 -66.6918      35 -66.6918
      36 -66.6918      37 -66.6918      38 -66.6918      39 -66.6918      40 -66.6918
      41 -66.6918      42 -66.6919      43 -66.6918      44 -66.6919      45 -66.6918
      46 -66.6918      47 -66.6918      48 -66.6918      49 -66.6918      50 -66.6918
      51 -66.6918      52 -66.6918      53 -66.6918      54 -66.6919      55 -66.6918
      56 -66.6919      57 -66.6918      58 -66.6919      59 -66.6918      60 -66.6918
      61 -66.6919      62 -66.6919      63 -66.6918      64 -66.6918      65 -66.5570
      66 -66.5570      67 -66.5570      68 -66.5570      69 -66.5570      70 -66.5570
      71 -66.5570      72 -66.5570      73 -66.5570      74 -66.5570      75 -66.5570
      76 -66.5570      77 -66.5570      78 -66.5570      79 -66.5570      80 -66.5570



 E-fermi :   6.6569     XC(G=0): -11.8800     alpha+bet :-17.2477

 Fermi energy:         6.6568609990

 k-point     1 :       0.1250    0.1250    0.1250
  band No.  band energies     occupation 
      1     -12.7022      2.00000
      2     -12.0914      2.00000
      3     -12.0654      2.00000
      4     -11.7270      2.00000
      5     -11.6958      2.00000
      6     -11.6722      2.00000
      7     -11.5325      2.00000
      8     -11.2321      2.00000
      9     -11.2205      2.00000
     10     -11.1608      2.00000
     11     -11.1522      2.00000
     12     -10.9979      2.00000
     13     -10.9153      2.00000
     14     -10.8586      2.00000
     15     -10.7350      2.00000
     16     -10.6265      2.00000
     17     -10.6247      2.00000
     18     -10.5343      2.00000
     19     -10.4909      2.00000
     20     -10.4695      2.00000
     21     -10.4257      2.00000
     22     -10.4190      2.00000
     23     -10.3686      2.00000
     24     -10.2940      2.00000
     25     -10.2931      2.00000
     26     -10.2876      2.00000
     27     -10.2513      2.00000
     28     -10.1782      2.00000
     29     -10.1384      2.00000
     30     -10.0555      2.00000
     31     -10.0311      2.00000
     32     -10.0218      2.00000
     33      -9.9092      2.00000
     34      -9.8799      2.00000
     35      -9.8697      2.00000
     36      -9.8602      2.00000
     37      -9.8330      2.00000
     38      -9.8304      2.00000
     39      -9.8269      2.00000
     40      -9.8154      2.00000
     41      -9.7525      2.00000
     42      -9.7331      2.00000
     43      -9.7307      2.00000
     44      -9.7021      2.00000
     45      -9.6339      2.00000
     46      -9.5783      2.00000
     47      -9.5080      2.00000
     48      -9.4806      2.00000
     49       0.1569      2.00000
     50       0.2191      2.00000
     51       0.2832      2.00000
     52       0.3033      2.00000
     53       0.3542      2.00000
     54       0.4058      2.00000
     55       0.4502      2.00000
     56       0.5438      2.00000
     57       0.6238      2.00000
     58       0.6378      2.00000
     59       0.6451      2.00000
     60       0.6768      2.00000
     61       0.7524      2.00000
     62       0.8056      2.00000
     63       0.8551      2.00000
     64       0.8560      2.00000
     65       0.8916      2.00000
     66       1.0410      2.00000
     67       1.2700      2.00000
     68       1.2987      2.00000
     69       1.3175      2.00000
     70       1.3790      2.00000
     71       1.4255      2.00000
     72       1.4735      2.00000
     73       1.5075      2.00000
     74       1.5809      2.00000
     75       1.6430      2.00000
     76       1.7244      2.00000
     77       1.7936      2.00000
     78       1.8694      2.00000
     79       1.9403      2.00000
     80       1.9867      2.00000
     81       1.9985      2.00000
     82       2.0184      2.00000
     83       2.0491      2.00000
     84       2.0652      2.00000
     85       2.2040      2.00000
     86       2.2436      2.00000
     87       2.2498      2.00000
     88       2.2579      2.00000
     89       2.2998      2.00000
     90       2.3425      2.00000
     91       2.3454      2.00000
     92       2.3498      2.00000
     93       2.3864      2.00000
     94       2.5560      2.00000
     95       2.7381      2.00000
     96       2.7509      2.00000
     97       2.8283      2.00000
     98       2.9005      2.00000
     99       2.9607      2.00000
    100       3.0622      2.00000
    101       3.1554      2.00000
    102       3.1905      2.00000
    103       3.2281      2.00000
    104       3.2382      2.00000
    105       3.3955      2.00000
    106       3.4716      2.00000
    107       3.5440      2.00000
    108       3.6058      2.00000
    109       3.6106      2.00000
    110       3.7358      2.00000
    111       3.7831      2.00000
    112       3.8005      2.00000
    113       3.8125      2.00000
    114       3.8770      2.00000
    115       3.9355      2.00000
    116       3.9550      2.00000
    117       3.9735      2.00000
    118       3.9741      2.00000
    119       4.0076      2.00000
    120       4.1530      2.00000
    121       4.1553      2.00000
    122       4.1859      2.00000
    123       4.2053      2.00000
    124       4.2623      2.00000
    125       4.3105      2.00000
    126       4.3391      2.00000
    127       4.3611      2.00000
    128       4.4296      2.00000
    129       4.5459      2.00000
    130       4.5462      2.00000
    131       4.6963      2.00000
    132       4.7092      2.00000
    133       4.7318      2.00000
    134       4.7407      2.00000
    135       4.8552      2.00000
    136       4.9124      2.00000
    137       4.9126      2.00000
    138       4.9470      2.00000
    139       4.9614      2.00000
    140       5.0192      2.00000
    141       5.0732      2.00000
    142       5.0745      2.00000
    143       5.1288      2.00000
    144       5.1428      2.00000
    145       5.1627      2.00000
    146       5.1726      2.00000
    147       5.1904      2.00000
    148       5.1924      2.00000
    149       5.2531      2.00000
    150       5.3195      2.00000
    151       5.3557      2.00000
    152       5.3736      2.00000
    153       5.3984      2.00000
    154       5.4096      2.00000
    155       5.4333      2.00000
    156       5.4370      2.00000
    157       5.5333      2.00000
    158       5.5436      2.00000
    159       5.6297      2.00000
    160       5.6308      2.00000
    161       5.6354      2.00000
    162       5.6627      2.00000
    163       5.6844      2.00000
    164       5.6982      2.00000
    165       5.7885      2.00000
    166       5.7989      2.00000
    167       5.8074      2.00000
    168       5.9308      2.00000
    169       5.9323      2.00000
    170       5.9402      2.00000
    171       5.9601      2.00000
    172       6.0326      2.00000
    173       6.0470      2.00000
    174       6.0827      2.00000
    175       6.0997      2.00000
    176       6.1706      2.00000
[...]
     0.000000000  9.866698251  0.000000000     0.000000000  0.101351027  0.000000000
     0.000000000  0.000000000  7.012444903     0.000000000  0.000000000  0.142603616

  length of vectors
     9.594047733  9.866698251  7.012444903     0.104231293  0.101351027  0.142603616


 FORCES acting on ions
    electron-ion (+dipol)            ewald-force                    non-local-force                 convergence-correction
 -----------------------------------------------------------------------------------------------
   0.340E+01 -.299E+01 0.166E+02   -.330E+01 0.707E+00 -.158E+02   -.107E+00 0.229E+01 -.790E+00   0.473E-04 -.133E-04 0.971E-04
   0.340E+01 -.299E+01 0.166E+02   -.330E+01 0.707E+00 -.158E+02   -.107E+00 0.229E+01 -.790E+00   0.473E-04 -.979E-05 0.969E-04
   0.340E+01 -.299E+01 0.166E+02   -.330E+01 0.707E+00 -.158E+02   -.107E+00 0.229E+01 -.790E+00   0.455E-04 -.133E-04 0.971E-04
   0.340E+01 -.299E+01 0.166E+02   -.330E+01 0.707E+00 -.158E+02   -.107E+00 0.229E+01 -.790E+00   0.455E-04 -.979E-05 0.968E-04
   0.340E+01 0.299E+01 -.166E+02   -.330E+01 -.707E+00 0.158E+02   -.107E+00 -.229E+01 0.790E+00   0.473E-04 0.116E-04 -.964E-04
   0.340E+01 0.299E+01 -.166E+02   -.330E+01 -.707E+00 0.158E+02   -.107E+00 -.229E+01 0.790E+00   0.473E-04 0.115E-04 -.964E-04
   0.340E+01 0.299E+01 -.166E+02   -.330E+01 -.707E+00 0.158E+02   -.107E+00 -.229E+01 0.790E+00   0.455E-04 0.116E-04 -.963E-04
   0.340E+01 0.299E+01 -.166E+02   -.330E+01 -.707E+00 0.158E+02   -.107E+00 -.229E+01 0.790E+00   0.455E-04 0.115E-04 -.963E-04
   -.340E+01 -.299E+01 -.166E+02   0.330E+01 0.707E+00 0.158E+02   0.107E+00 0.229E+01 0.790E+00   -.455E-04 -.110E-04 -.973E-04
   -.340E+01 -.299E+01 -.166E+02   0.330E+01 0.707E+00 0.158E+02   0.107E+00 0.229E+01 0.790E+00   -.455E-04 -.120E-04 -.973E-04
   -.340E+01 -.299E+01 -.166E+02   0.330E+01 0.707E+00 0.158E+02   0.107E+00 0.229E+01 0.790E+00   -.474E-04 -.110E-04 -.974E-04
   -.340E+01 -.299E+01 -.166E+02   0.330E+01 0.707E+00 0.158E+02   0.107E+00 0.229E+01 0.790E+00   -.474E-04 -.121E-04 -.974E-04
   -.340E+01 0.299E+01 0.166E+02   0.330E+01 -.707E+00 -.158E+02   0.107E+00 -.229E+01 -.790E+00   -.455E-04 0.133E-04 0.968E-04
   -.340E+01 0.299E+01 0.166E+02   0.330E+01 -.707E+00 -.158E+02   0.107E+00 -.229E+01 -.790E+00   -.455E-04 0.973E-05 0.965E-04
   -.340E+01 0.299E+01 0.166E+02   0.330E+01 -.707E+00 -.158E+02   0.107E+00 -.229E+01 -.790E+00   -.474E-04 0.133E-04 0.969E-04
   -.340E+01 0.299E+01 0.166E+02   0.330E+01 -.707E+00 -.158E+02   0.107E+00 -.229E+01 -.790E+00   -.474E-04 0.973E-05 0.966E-04
   -.340E+01 0.299E+01 -.166E+02   0.330E+01 -.707E+00 0.158E+02   0.107E+00 -.229E+01 0.790E+00   -.464E-04 0.133E-04 -.965E-04
   -.340E+01 0.299E+01 -.166E+02   0.330E+01 -.707E+00 0.158E+02   0.107E+00 -.229E+01 0.790E+00   -.464E-04 0.973E-05 -.962E-04
   -.340E+01 0.299E+01 -.166E+02   0.330E+01 -.707E+00 0.158E+02   0.107E+00 -.229E+01 0.790E+00   -.465E-04 0.133E-04 -.965E-04
   -.340E+01 0.299E+01 -.166E+02   0.330E+01 -.707E+00 0.158E+02   0.107E+00 -.229E+01 0.790E+00   -.465E-04 0.973E-05 -.963E-04
   -.340E+01 -.299E+01 0.166E+02   0.330E+01 0.707E+00 -.158E+02   0.107E+00 0.229E+01 -.790E+00   -.464E-04 -.110E-04 0.970E-04
   -.340E+01 -.299E+01 0.166E+02   0.330E+01 0.707E+00 -.158E+02   0.107E+00 0.229E+01 -.790E+00   -.464E-04 -.121E-04 0.970E-04
   -.340E+01 -.299E+01 0.166E+02   0.330E+01 0.707E+00 -.158E+02   0.107E+00 0.229E+01 -.790E+00   -.465E-04 -.110E-04 0.970E-04
   -.340E+01 -.299E+01 0.166E+02   0.330E+01 0.707E+00 -.158E+02   0.107E+00 0.229E+01 -.790E+00   -.465E-04 -.121E-04 0.970E-04
   0.340E+01 0.299E+01 0.166E+02   -.330E+01 -.707E+00 -.158E+02   -.107E+00 -.229E+01 -.790E+00   0.466E-04 0.116E-04 0.967E-04
   0.340E+01 0.299E+01 0.166E+02   -.330E+01 -.707E+00 -.158E+02   -.107E+00 -.229E+01 -.790E+00   0.466E-04 0.115E-04 0.967E-04
   0.340E+01 0.299E+01 0.166E+02   -.330E+01 -.707E+00 -.158E+02   -.107E+00 -.229E+01 -.790E+00   0.463E-04 0.116E-04 0.966E-04
   0.340E+01 0.299E+01 0.166E+02   -.330E+01 -.707E+00 -.158E+02   -.107E+00 -.229E+01 -.790E+00   0.463E-04 0.115E-04 0.967E-04
   0.340E+01 -.299E+01 -.166E+02   -.330E+01 0.707E+00 0.158E+02   -.107E+00 0.229E+01 0.790E+00   0.466E-04 -.133E-04 -.974E-04
   0.340E+01 -.299E+01 -.166E+02   -.330E+01 0.707E+00 0.158E+02   -.107E+00 0.229E+01 0.790E+00   0.466E-04 -.979E-05 -.972E-04
   0.340E+01 -.299E+01 -.166E+02   -.330E+01 0.707E+00 0.158E+02   -.107E+00 0.229E+01 0.790E+00   0.464E-04 -.133E-04 -.974E-04
   0.340E+01 -.299E+01 -.166E+02   -.330E+01 0.707E+00 0.158E+02   -.107E+00 0.229E+01 0.790E+00   0.464E-04 -.979E-05 -.972E-04
   0.676E+01 0.330E+01 -.185E+02   -.547E+01 -.260E+01 0.195E+02   -.128E+01 -.698E+00 -.991E+00   -.190E-03 0.252E-04 -.685E-03
   0.676E+01 0.330E+01 -.185E+02   -.547E+01 -.260E+01 0.195E+02   -.128E+01 -.698E+00 -.991E+00   -.190E-03 0.329E-04 -.685E-03
   0.676E+01 0.330E+01 -.185E+02   -.547E+01 -.260E+01 0.195E+02   -.128E+01 -.698E+00 -.991E+00   -.193E-03 0.252E-04 -.684E-03
   0.676E+01 0.330E+01 -.185E+02   -.547E+01 -.260E+01 0.195E+02   -.128E+01 -.698E+00 -.991E+00   -.193E-03 0.329E-04 -.685E-03
   0.676E+01 -.330E+01 0.185E+02   -.547E+01 0.260E+01 -.195E+02   -.128E+01 0.698E+00 0.991E+00   -.190E-03 -.294E-04 0.686E-03
   0.676E+01 -.330E+01 0.185E+02   -.547E+01 0.260E+01 -.195E+02   -.128E+01 0.698E+00 0.991E+00   -.190E-03 -.286E-04 0.686E-03
   0.676E+01 -.330E+01 0.185E+02   -.547E+01 0.260E+01 -.195E+02   -.128E+01 0.698E+00 0.991E+00   -.193E-03 -.294E-04 0.686E-03
   0.676E+01 -.330E+01 0.185E+02   -.547E+01 0.260E+01 -.195E+02   -.128E+01 0.698E+00 0.991E+00   -.193E-03 -.286E-04 0.686E-03
   -.676E+01 0.330E+01 0.185E+02   0.547E+01 -.260E+01 -.195E+02   0.128E+01 -.698E+00 0.991E+00   0.193E-03 0.307E-04 0.686E-03
   -.676E+01 0.330E+01 0.185E+02   0.547E+01 -.260E+01 -.195E+02   0.128E+01 -.698E+00 0.991E+00   0.193E-03 0.274E-04 0.686E-03
   -.676E+01 0.330E+01 0.185E+02   0.547E+01 -.260E+01 -.195E+02   0.128E+01 -.698E+00 0.991E+00   0.189E-03 0.307E-04 0.686E-03
   -.676E+01 0.330E+01 0.185E+02   0.547E+01 -.260E+01 -.195E+02   0.128E+01 -.698E+00 0.991E+00   0.189E-03 0.274E-04 0.686E-03
   -.676E+01 -.330E+01 -.185E+02   0.547E+01 0.260E+01 0.195E+02   0.128E+01 0.698E+00 -.991E+00   0.193E-03 -.248E-04 -.687E-03
   -.676E+01 -.330E+01 -.185E+02   0.547E+01 0.260E+01 0.195E+02   0.128E+01 0.698E+00 -.991E+00   0.193E-03 -.334E-04 -.687E-03
   -.676E+01 -.330E+01 -.185E+02   0.547E+01 0.260E+01 0.195E+02   0.128E+01 0.698E+00 -.991E+00   0.189E-03 -.247E-04 -.687E-03
   -.676E+01 -.330E+01 -.185E+02   0.547E+01 0.260E+01 0.195E+02   0.128E+01 0.698E+00 -.991E+00   0.189E-03 -.333E-04 -.688E-03
   -.676E+01 -.330E+01 0.185E+02   0.547E+01 0.260E+01 -.195E+02   0.128E+01 0.698E+00 0.991E+00   0.191E-03 -.248E-04 0.686E-03
   -.676E+01 -.330E+01 0.185E+02   0.547E+01 0.260E+01 -.195E+02   0.128E+01 0.698E+00 0.991E+00   0.191E-03 -.334E-04 0.686E-03
   -.676E+01 -.330E+01 0.185E+02   0.547E+01 0.260E+01 -.195E+02   0.128E+01 0.698E+00 0.991E+00   0.192E-03 -.248E-04 0.686E-03
   -.676E+01 -.330E+01 0.185E+02   0.547E+01 0.260E+01 -.195E+02   0.128E+01 0.698E+00 0.991E+00   0.192E-03 -.334E-04 0.687E-03
   -.676E+01 0.330E+01 -.185E+02   0.547E+01 -.260E+01 0.195E+02   0.128E+01 -.698E+00 -.991E+00   0.191E-03 0.307E-04 -.685E-03
   -.676E+01 0.330E+01 -.185E+02   0.547E+01 -.260E+01 0.195E+02   0.128E+01 -.698E+00 -.991E+00   0.191E-03 0.274E-04 -.685E-03
   -.676E+01 0.330E+01 -.185E+02   0.547E+01 -.260E+01 0.195E+02   0.128E+01 -.698E+00 -.991E+00   0.192E-03 0.307E-04 -.685E-03
   -.676E+01 0.330E+01 -.185E+02   0.547E+01 -.260E+01 0.195E+02   0.128E+01 -.698E+00 -.991E+00   0.192E-03 0.274E-04 -.685E-03
   0.676E+01 -.330E+01 -.185E+02   -.547E+01 0.260E+01 0.195E+02   -.128E+01 0.698E+00 -.991E+00   -.190E-03 -.294E-04 -.687E-03
   0.676E+01 -.330E+01 -.185E+02   -.547E+01 0.260E+01 0.195E+02   -.128E+01 0.698E+00 -.991E+00   -.190E-03 -.286E-04 -.687E-03
   0.676E+01 -.330E+01 -.185E+02   -.547E+01 0.260E+01 0.195E+02   -.128E+01 0.698E+00 -.991E+00   -.193E-03 -.294E-04 -.687E-03
   0.676E+01 -.330E+01 -.185E+02   -.547E+01 0.260E+01 0.195E+02   -.128E+01 0.698E+00 -.991E+00   -.193E-03 -.286E-04 -.687E-03
   0.676E+01 0.330E+01 0.185E+02   -.547E+01 -.260E+01 -.195E+02   -.128E+01 -.698E+00 0.991E+00   -.190E-03 0.251E-04 0.686E-03
   0.676E+01 0.330E+01 0.185E+02   -.547E+01 -.260E+01 -.195E+02   -.128E+01 -.698E+00 0.991E+00   -.190E-03 0.329E-04 0.686E-03
   0.676E+01 0.330E+01 0.185E+02   -.547E+01 -.260E+01 -.195E+02   -.128E+01 -.698E+00 0.991E+00   -.193E-03 0.252E-04 0.686E-03
   0.676E+01 0.330E+01 0.185E+02   -.547E+01 -.260E+01 -.195E+02   -.128E+01 -.698E+00 0.991E+00   -.193E-03 0.329E-04 0.686E-03
   -.201E+02 -.434E-04 -.285E-04   0.210E+02 0.116E-04 0.397E-04   -.919E+00 -.740E-19 -.454E-19   -.115E-03 -.249E-05 -.147E-05
   -.201E+02 -.412E-04 -.245E-04   0.210E+02 -.416E-05 0.473E-05   -.919E+00 -.163E-18 -.406E-19   -.115E-03 0.248E-05 -.729E-06
   -.201E+02 -.434E-04 -.285E-04   0.210E+02 0.116E-04 0.397E-04   -.919E+00 -.745E-19 -.464E-19   -.118E-03 -.249E-05 -.147E-05
   -.201E+02 -.412E-04 -.245E-04   0.210E+02 -.416E-05 0.473E-05   -.919E+00 -.138E-18 -.387E-19   -.118E-03 0.248E-05 -.729E-06
   0.201E+02 -.425E-04 -.485E-04   -.210E+02 -.141E-05 -.184E-04   0.919E+00 0.145E-18 0.420E-20   0.118E-03 0.342E-05 0.780E-06
   0.201E+02 -.441E-04 -.444E-04   -.210E+02 0.153E-04 -.421E-04   0.919E+00 0.128E-18 -.213E-19   0.118E-03 -.343E-05 0.145E-05
   0.201E+02 -.425E-04 -.485E-04   -.210E+02 -.141E-05 -.184E-04   0.919E+00 0.145E-18 -.644E-19   0.115E-03 0.342E-05 0.780E-06
   0.201E+02 -.441E-04 -.444E-04   -.210E+02 0.153E-04 -.421E-04   0.919E+00 0.113E-18 -.804E-19   0.115E-03 -.343E-05 0.145E-05
   0.201E+02 -.465E-04 -.575E-04   -.210E+02 -.387E-05 0.116E-04   0.919E+00 0.631E-19 0.297E-19   0.116E-03 0.342E-05 -.766E-06
   0.201E+02 -.481E-04 -.616E-04   -.210E+02 0.128E-04 0.353E-04   0.919E+00 0.459E-19 0.193E-19   0.116E-03 -.343E-05 -.143E-05
   0.201E+02 -.465E-04 -.575E-04   -.210E+02 -.387E-05 0.116E-04   0.919E+00 0.603E-19 0.302E-19   0.118E-03 0.342E-05 -.766E-06
   0.201E+02 -.481E-04 -.616E-04   -.210E+02 0.128E-04 0.353E-04   0.919E+00 0.734E-19 0.231E-19   0.118E-03 -.343E-05 -.143E-05
   -.201E+02 -.497E-04 -.113E-04   0.210E+02 0.141E-04 -.465E-04   -.919E+00 -.129E-18 0.159E-19   -.116E-03 -.249E-05 0.148E-05
   -.201E+02 -.475E-04 -.153E-04   0.210E+02 -.170E-05 -.115E-04   -.919E+00 -.202E-19 0.204E-20   -.116E-03 0.248E-05 0.744E-06
   -.201E+02 -.497E-04 -.113E-04   0.210E+02 0.141E-04 -.465E-04   -.919E+00 -.114E-18 0.834E-19   -.118E-03 -.249E-05 0.148E-05
   -.201E+02 -.475E-04 -.153E-04   0.210E+02 -.170E-05 -.115E-04   -.919E+00 0.719E-20 0.654E-19   -.118E-03 0.248E-05 0.744E-06
 -----------------------------------------------------------------------------------------------
   0.497E-02 -.237E-02 -.780E-03   0.711E-13 0.129E-12 -.828E-13   -.211E-14 -.222E-14 -.638E-19   0.152E-06 -.331E-07 0.432E-08


 POSITION                                       TOTAL-FORCE (eV/Angst)
 -----------------------------------------------------------------------------------
      1.21029      0.15488      2.73477        -0.000096      0.009320     -0.007855
      1.21029      5.08823      2.73477        -0.000096      0.009320     -0.007855
      6.00732      0.15488      2.73477        -0.000096      0.009320     -0.007855
      6.00732      5.08823      2.73477        -0.000096      0.009320     -0.007855
      1.21029      2.31179      4.27767        -0.000096     -0.009320      0.007855
      1.21029      7.24514      4.27767        -0.000096     -0.009320      0.007855
      6.00732      2.31179      4.27767        -0.000096     -0.009320      0.007855
      6.00732      7.24514      4.27767        -0.000096     -0.009320      0.007855
      1.18822      2.62155      0.77145         0.000096      0.009320      0.007855
      1.18822      7.55490      0.77145         0.000096      0.009320      0.007855
      5.98524      2.62155      0.77145         0.000096      0.009320      0.007855
      5.98524      7.55490      0.77145         0.000096      0.009320      0.007855
      1.18822      4.77847      6.24099         0.000096     -0.009320     -0.007855
      1.18822      9.71182      6.24099         0.000096     -0.009320     -0.007855
      5.98524      4.77847      6.24099         0.000096     -0.009320     -0.007855
      5.98524      9.71182      6.24099         0.000096     -0.009320     -0.007855
      3.58673      4.77847      4.27767         0.000096     -0.009320      0.007855
      3.58673      9.71182      4.27767         0.000096     -0.009320      0.007855
      8.38375      4.77847      4.27767         0.000096     -0.009320      0.007855
      8.38375      9.71182      4.27767         0.000096     -0.009320      0.007855
      3.58673      2.62155      2.73477         0.000096      0.009320     -0.007855
      3.58673      7.55490      2.73477         0.000096      0.009320     -0.007855
      8.38375      2.62155      2.73477         0.000096      0.009320     -0.007855
      8.38375      7.55490      2.73477         0.000096      0.009320     -0.007855
      3.60881      2.31179      6.24099        -0.000096     -0.009320     -0.007855
      3.60881      7.24514      6.24099        -0.000096     -0.009320     -0.007855
      8.40583      2.31179      6.24099        -0.000096     -0.009320     -0.007855
      8.40583      7.24514      6.24099        -0.000096     -0.009320     -0.007855
      3.60881      0.15488      0.77145        -0.000096      0.009320      0.007855
      3.60881      5.08823      0.77145        -0.000096      0.009320      0.007855
      8.40583      0.15488      0.77145        -0.000096      0.009320      0.007855
      8.40583      5.08823      0.77145        -0.000096      0.009320      0.007855
      0.51363      0.50513      4.58718         0.003404      0.003504      0.004800
      0.51363      5.43848      4.58718         0.003404      0.003504      0.004800
      5.31065      0.50513      4.58718         0.003404      0.003504      0.004800
      5.31065      5.43848      4.58718         0.003404      0.003504      0.004800
      0.51363      1.96154      2.42526         0.003404     -0.003504     -0.004800
      0.51363      6.89489      2.42526         0.003404     -0.003504     -0.004800
      5.31065      1.96154      2.42526         0.003404     -0.003504     -0.004800
      5.31065      6.89489      2.42526         0.003404     -0.003504     -0.004800
      1.88488      2.97181      5.93149        -0.003404      0.003504     -0.004800
      1.88488      7.90515      5.93149        -0.003404      0.003504     -0.004800
      6.68191      2.97181      5.93149        -0.003404      0.003504     -0.004800
      6.68191      7.90515      5.93149        -0.003404      0.003504     -0.004800
      1.88488      4.42822      1.08096        -0.003404     -0.003504      0.004800
      1.88488      9.36157      1.08096        -0.003404     -0.003504      0.004800
      6.68191      4.42822      1.08096        -0.003404     -0.003504      0.004800
      6.68191      9.36157      1.08096        -0.003404     -0.003504      0.004800
      4.28339      4.42822      2.42526        -0.003404     -0.003504     -0.004800
      4.28339      9.36157      2.42526        -0.003404     -0.003504     -0.004800
      9.08042      4.42822      2.42526        -0.003404     -0.003504     -0.004800
      9.08042      9.36157      2.42526        -0.003404     -0.003504     -0.004800
      4.28339      2.97181      4.58718        -0.003404      0.003504      0.004800
      4.28339      7.90515      4.58718        -0.003404      0.003504      0.004800
      9.08042      2.97181      4.58718        -0.003404      0.003504      0.004800
      9.08042      7.90515      4.58718        -0.003404      0.003504      0.004800
      2.91214      1.96154      1.08096         0.003404     -0.003504      0.004800
      2.91214      6.89489      1.08096         0.003404     -0.003504      0.004800
      7.70917      1.96154      1.08096         0.003404     -0.003504      0.004800
      7.70917      6.89489      1.08096         0.003404     -0.003504      0.004800
      2.91214      0.50513      5.93149         0.003404      0.003504     -0.004800
      2.91214      5.43848      5.93149         0.003404      0.003504     -0.004800
      7.70917      0.50513      5.93149         0.003404      0.003504     -0.004800
      7.70917      5.43848      5.93149         0.003404      0.003504     -0.004800
      0.24075      1.23334      0.00000         0.004784     -0.000000      0.000000
      0.24075      6.16669      0.00000         0.004784     -0.000000      0.000000
      5.03778      1.23334      0.00000         0.004784     -0.000000      0.000000
      5.03778      6.16669      0.00000         0.004784     -0.000000      0.000000
      2.15776      3.70001      3.50622        -0.004784     -0.000000      0.000000
      2.15776      8.63336      3.50622        -0.004784     -0.000000      0.000000
      6.95478      3.70001      3.50622        -0.004784     -0.000000      0.000000
      6.95478      8.63336      3.50622        -0.004784     -0.000000      0.000000
      4.55627      3.70001      0.00000        -0.004784     -0.000000      0.000000
      4.55627      8.63336      0.00000        -0.004784     -0.000000      0.000000
      9.35329      3.70001      0.00000        -0.004784     -0.000000      0.000000
      9.35329      8.63336      0.00000        -0.004784     -0.000000      0.000000
      2.63927      1.23334      3.50622         0.004784     -0.000000      0.000000
      2.63927      6.16669      3.50622         0.004784     -0.000000      0.000000
      7.43629      1.23334      3.50622         0.004784     -0.000000      0.000000
      7.43629      6.16669      3.50622         0.004784     -0.000000      0.000000
 -----------------------------------------------------------------------------------
    total drift:                                0.004967     -0.002371     -0.000780


--------------------------------------------------------------------------------------------------------



  FREE ENERGIE OF THE ION-ELECTRON SYSTEM (eV)
  ---------------------------------------------------
  free  energy   TOTEN  =      -591.60986546 eV

  energy  without entropy=     -591.61044931  energy(sigma->0) =     -591.61006008



--------------------------------------------------------------------------------------------------------


    POTLOK:  cpu time      0.3362: real time      0.3529


--------------------------------------------------------------------------------------------------------


 writing wavefunctions
     LOOP+:  cpu time    814.7107: real time    823.8803
    4ORBIT:  cpu time      0.0000: real time      0.0000

 total amount of memory used by VASP MPI-rank0   482594. kBytes
=======================================================================

   base      :      30000. kBytes
   nonlr-proj:       8552. kBytes
   fftplans  :      23216. kBytes
   grid      :      41250. kBytes
   one-center:        245. kBytes
   wavefun   :     379331. kBytes

  
  
 General timing and accounting informations for this job:
 ========================================================
  
                  Total CPU time used (sec):      824.211
                            User time (sec):      821.420
                          System time (sec):        2.791
                         Elapsed time (sec):      930.226
  
                   Maximum memory used (kb):      664240.
                   Average memory used (kb):          N/A
  
                          Minor page faults:       329954
                          Major page faults:           14
                 Voluntary context switches:          847
