
     Program PWSCF v.7.4 starts on 29Dec2024 at 19:23:38 

     This program is part of the open-source Quantum ESPRESSO suite
     for quantum simulation of materials; please cite
         "P. Giannozzi et al., J. Phys.:Condens. Matter 21 395502 (2009);
         "P. Giannozzi et al., J. Phys.:Condens. Matter 29 465901 (2017);
         "P. Giannozzi et al., J. Chem. Phys. 152 154105 (2020);
          URL http://www.quantum-espresso.org", 
     in publications or presentations arising from this work. More details at
     http://www.quantum-espresso.org/quote

     Parallel version (MPI), running on     4 processors

     MPI processes distributed on     1 nodes
     150434 MiB available memory on the printing compute node when the environment starts

     Reading input from input.in

     Current dimensions of program PWSCF are:
     Max number of different atomic species (ntypx) = 10
     Max number of k-points (npk) =  40000
     Max angular momentum in pseudopotentials (lmaxx) =  4
     file O.pbe-n-kjpaw_psl.0.1.UPF: wavefunction(s)  2P renormalized

     R & G space division:  proc/nbgrp/npool/nimage =       4
     Subspace diagonalization in iterative solution of the eigenvalue problem:
     a serial algorithm will be used


     Parallelization info
     --------------------
     sticks:   dense  smooth     PW     G-vecs:    dense   smooth      PW
     Min         268     134     43                 9428     3324     597
     Max         269     135     44                 9431     3327     600
     Sum        1073     537    173                37717    13301    2393

     Using Slab Decomposition



     bravais-lattice index     =            0
     lattice parameter (alat)  =       5.5957  a.u.
     unit-cell volume          =     389.9424 (a.u.)^3
     number of atoms/cell      =            6
     number of atomic types    =            2
     number of electrons       =        30.00
     number of Kohn-Sham states=           19
     kinetic-energy cutoff     =      40.0000  Ry
     charge density cutoff     =     320.0000  Ry
     scf convergence threshold =      1.0E-08
     mixing beta               =       0.7000
     number of iterations used =            8  plain     mixing
     energy convergence thresh.=      1.0E-04
     force convergence thresh. =      1.0E-03
     press convergence thresh. =      5.0E-01
     Exchange-correlation= SLA  PW   PBX  PBC
                           (   1   4   3   4   0   0   0)
     nstep                     =           50


     celldm(1)=   5.595670  celldm(2)=   0.000000  celldm(3)=   0.000000
     celldm(4)=   0.000000  celldm(5)=   0.000000  celldm(6)=   0.000000

     crystal axes: (cart. coord. in units of alat)
               a(1) = (   1.000000   0.000000   0.000000 )  
               a(2) = (   0.000000   1.346009   0.000000 )  
               a(3) = (   0.000000   0.000000   1.653469 )  

     reciprocal axes: (cart. coord. in units 2 pi/alat)
               b(1) = (  1.000000  0.000000  0.000000 )  
               b(2) = (  0.000000  0.742937  0.000000 )  
               b(3) = (  0.000000  0.000000  0.604789 )  


     PseudoPot. # 1 for Li read from file:
     ./li_pbe_v1.4.uspp.F.UPF
     MD5 check sum: e912e257baa3777c20ea3d68f190483c
     Pseudo is Ultrasoft, Zval =  3.0
     Generated by new atomic code, or converted to UPF format
     Using radial grid of  751 points,  5 beta functions with: 
                l(1) =   0
                l(2) =   0
                l(3) =   0
                l(4) =   1
                l(5) =   1
     Q(r) pseudized with 10 coefficients,  rinner =    1.150   1.150   1.150


     PseudoPot. # 2 for O  read from file:
     ./O.pbe-n-kjpaw_psl.0.1.UPF
     MD5 check sum: 0234752ac141de4415c5fc33072bef88
     Pseudo is Projector augmented-wave + core cor, Zval =  6.0
     Generated using "atomic" code by A. Dal Corso  v.5.0.99 svn rev. 10869
     Shape of augmentation charge: BESSEL
     Using radial grid of 1095 points,  4 beta functions with: 
                l(1) =   0
                l(2) =   0
                l(3) =   1
                l(4) =   1
     Q(r) pseudized with 0 coefficients 


     atomic species   valence    mass     pseudopotential
     Li                3.00     1.00000     Li( 1.00)
     O                 6.00     1.00000     O ( 1.00)

     No symmetry found



   Cartesian axes

     site n.     atom                  positions (alat units)
         1        Li     tau(   1) = (   0.1688561   0.1688561   0.1688561  )
         2        Li     tau(   2) = (   0.0000000   0.0000000   0.0000000  )
         3        O      tau(   3) = (   0.1688561   0.2133862   0.0289159  )
         4        O      tau(   4) = (   0.1688561   0.1243261   0.3087963  )
         5        O      tau(   5) = (   0.0000000   0.0445301   0.1399402  )
         6        O      tau(   6) = (   0.0000000   0.2931822   0.1977720  )

     number of k points=    36  Gaussian smearing, width (Ry)=  0.0200
                       cart. coord. in units 2pi/alat
        k(    1) = (   0.0000000   0.0000000   0.0000000), wk =   0.0312500
        k(    2) = (   0.0000000   0.0000000   0.1511972), wk =   0.0625000
        k(    3) = (   0.0000000   0.0000000  -0.3023945), wk =   0.0312500
        k(    4) = (   0.0000000   0.1857343   0.0000000), wk =   0.0625000
        k(    5) = (   0.0000000   0.1857343   0.1511972), wk =   0.0625000
        k(    6) = (   0.0000000   0.1857343  -0.3023945), wk =   0.0625000
        k(    7) = (   0.0000000  -0.3714685   0.0000000), wk =   0.0312500
        k(    8) = (   0.0000000  -0.3714685   0.1511972), wk =   0.0625000
        k(    9) = (   0.0000000  -0.3714685  -0.3023945), wk =   0.0312500
        k(   10) = (   0.2500000   0.0000000   0.0000000), wk =   0.0625000
        k(   11) = (   0.2500000   0.0000000   0.1511972), wk =   0.0625000
        k(   12) = (   0.2500000   0.0000000  -0.3023945), wk =   0.0625000
        k(   13) = (   0.2500000   0.1857343   0.0000000), wk =   0.0625000
        k(   14) = (   0.2500000   0.1857343   0.1511972), wk =   0.0625000
        k(   15) = (   0.2500000   0.1857343  -0.3023945), wk =   0.0625000
        k(   16) = (   0.2500000  -0.3714685   0.0000000), wk =   0.0625000
        k(   17) = (   0.2500000  -0.3714685   0.1511972), wk =   0.0625000
        k(   18) = (   0.2500000  -0.3714685  -0.3023945), wk =   0.0625000
        k(   19) = (  -0.5000000   0.0000000   0.0000000), wk =   0.0312500
        k(   20) = (  -0.5000000   0.0000000   0.1511972), wk =   0.0625000
        k(   21) = (  -0.5000000   0.0000000  -0.3023945), wk =   0.0312500
        k(   22) = (  -0.5000000   0.1857343   0.0000000), wk =   0.0625000
        k(   23) = (  -0.5000000   0.1857343   0.1511972), wk =   0.0625000
        k(   24) = (  -0.5000000   0.1857343  -0.3023945), wk =   0.0625000
        k(   25) = (  -0.5000000  -0.3714685   0.0000000), wk =   0.0312500
        k(   26) = (  -0.5000000  -0.3714685   0.1511972), wk =   0.0625000
        k(   27) = (  -0.5000000  -0.3714685  -0.3023945), wk =   0.0312500
        k(   28) = (   0.0000000  -0.1857343   0.1511972), wk =   0.0625000
        k(   29) = (  -0.2500000   0.0000000   0.1511972), wk =   0.0625000
        k(   30) = (  -0.2500000   0.1857343   0.0000000), wk =   0.0625000
        k(   31) = (  -0.2500000  -0.1857343   0.1511972), wk =   0.0625000
        k(   32) = (  -0.2500000   0.1857343  -0.1511972), wk =   0.0625000
        k(   33) = (   0.2500000  -0.1857343  -0.1511972), wk =   0.0625000
        k(   34) = (  -0.2500000   0.1857343   0.3023945), wk =   0.0625000
        k(   35) = (  -0.2500000   0.3714685   0.1511972), wk =   0.0625000
        k(   36) = (   0.5000000  -0.1857343   0.1511972), wk =   0.0625000

     Dense  grid:    37717 G-vectors     FFT dimensions: (  32,  45,  54)

     Smooth grid:    13301 G-vectors     FFT dimensions: (  24,  32,  40)

     Estimated max dynamical RAM per process >      21.79 MB

     Estimated total dynamical RAM >      87.14 MB

     Check: negative core charge=   -0.000004

     Initial potential from superposition of free atoms

     starting charge      29.0985, renormalised to      30.0000
     Starting wfcs are   26 randomized atomic wfcs
     Checking if some PAW data can be deallocated... 

     total cpu time spent up to now is        0.9 secs

     Self-consistent Calculation

     iteration #  1     ecut=    40.00 Ry     beta= 0.70
     Davidson diagonalization with overlap
     ethr =  1.00E-02,  avg # of iterations =  7.2

     total cpu time spent up to now is        2.6 secs

     total energy              =    -138.24269760 Ry
     estimated scf accuracy    <       3.31464369 Ry

     iteration #  2     ecut=    40.00 Ry     beta= 0.70
     Davidson diagonalization with overlap
     ethr =  1.00E-02,  avg # of iterations =  3.4

     total cpu time spent up to now is        3.8 secs

     total energy              =    -138.80408936 Ry
     estimated scf accuracy    <       3.62308590 Ry

     iteration #  3     ecut=    40.00 Ry     beta= 0.70
     Davidson diagonalization with overlap
     ethr =  1.00E-02,  avg # of iterations =  2.1

     total cpu time spent up to now is        4.7 secs

     total energy              =    -139.48804573 Ry
     estimated scf accuracy    <       0.15516277 Ry

     iteration #  4     ecut=    40.00 Ry     beta= 0.70
     Davidson diagonalization with overlap
     ethr =  5.17E-04,  avg # of iterations =  3.8

     total cpu time spent up to now is        5.8 secs

     total energy              =    -139.51803387 Ry
     estimated scf accuracy    <       0.01431560 Ry

     iteration #  5     ecut=    40.00 Ry     beta= 0.70
     Davidson diagonalization with overlap
     ethr =  4.77E-05,  avg # of iterations =  3.9

     total cpu time spent up to now is        6.9 secs

     total energy              =    -139.52107230 Ry
     estimated scf accuracy    <       0.00217239 Ry

     iteration #  6     ecut=    40.00 Ry     beta= 0.70
     Davidson diagonalization with overlap
     ethr =  7.24E-06,  avg # of iterations =  3.6

     total cpu time spent up to now is        8.0 secs

     total energy              =    -139.52160452 Ry
     estimated scf accuracy    <       0.00051354 Ry

     iteration #  7     ecut=    40.00 Ry     beta= 0.70
     Davidson diagonalization with overlap
     ethr =  1.71E-06,  avg # of iterations =  2.5

     total cpu time spent up to now is        9.0 secs

     total energy              =    -139.52172278 Ry
     estimated scf accuracy    <       0.00006041 Ry

     iteration #  8     ecut=    40.00 Ry     beta= 0.70
     Davidson diagonalization with overlap
     ethr =  2.01E-07,  avg # of iterations =  2.1

     total cpu time spent up to now is       10.0 secs

     total energy              =    -139.52173688 Ry
     estimated scf accuracy    <       0.00000168 Ry

     iteration #  9     ecut=    40.00 Ry     beta= 0.70
     Davidson diagonalization with overlap
     ethr =  5.60E-09,  avg # of iterations =  4.1

     total cpu time spent up to now is       11.1 secs

     total energy              =    -139.52173739 Ry
     estimated scf accuracy    <       0.00000015 Ry

     iteration # 10     ecut=    40.00 Ry     beta= 0.70
     Davidson diagonalization with overlap
     ethr =  5.16E-10,  avg # of iterations =  2.8

     total cpu time spent up to now is       12.0 secs

     total energy              =    -139.52173743 Ry
     estimated scf accuracy    <       0.00000002 Ry

     iteration # 11     ecut=    40.00 Ry     beta= 0.70
     Davidson diagonalization with overlap
     ethr =  5.38E-11,  avg # of iterations =  2.2

     total cpu time spent up to now is       13.0 secs

     End of self-consistent calculation

          k = 0.0000 0.0000 0.0000 (  1687 PWs)   bands (ev):

  -177.5115-108.4421 -72.9337 -69.3439 -51.9109 -35.2863 -34.3371 -26.9942
   -21.8546 -12.2910  -7.6047  -6.9900  -2.7891   3.1914   6.5809   6.9672
     7.8967   9.4101  10.5878

          k = 0.0000 0.0000 0.1512 (  1683 PWs)   bands (ev):

  -177.5143-108.4446 -72.9333 -69.3412 -51.9108 -35.2859 -34.3371 -26.9904
   -21.8558 -12.2909  -7.6267  -7.0181  -2.8313   3.3579   6.5879   6.8091
     8.0730   9.4414  10.7304

          k = 0.0000 0.0000-0.3024 (  1670 PWs)   bands (ev):

  -177.5132-108.4433 -72.9314 -69.3391 -51.9093 -35.2813 -34.3351 -26.9836
   -21.8428 -12.2842  -7.6245  -7.0420  -2.8641   3.5380   6.6173   6.6288
     8.2453   9.4638  10.9000

          k = 0.0000 0.1857 0.0000 (  1677 PWs)   bands (ev):

  -177.5190-108.4425 -72.9315 -69.3414 -51.9094 -35.2797 -34.3364 -26.9876
   -21.8488 -12.2874  -7.6036  -7.0339  -2.7829   3.0579   6.2153   7.1349
     7.9263   9.5153  10.5826

          k = 0.0000 0.1857 0.1512 (  1669 PWs)   bands (ev):

  -177.5069-108.4418 -72.9312 -69.3401 -51.9089 -35.2794 -34.3349 -26.9809
   -21.8366 -12.2764  -7.6015  -7.0523  -2.8195   3.0709   6.3691   7.3044
     8.0777   9.5803   9.9226

          k = 0.0000 0.1857-0.3024 (  1680 PWs)   bands (ev):

  -177.5235-108.4470 -72.9333 -69.3408 -51.9100 -35.2813 -34.3367 -26.9840
   -21.8506 -12.2855  -7.6352  -7.0861  -2.8623   3.2727   6.3266   6.9135
     8.4137   9.3796  10.4232

          k = 0.0000-0.3715 0.0000 (  1648 PWs)   bands (ev):

  -177.5124-108.4376 -72.9261 -69.3358 -51.9072 -35.2730 -34.3328 -26.9719
   -21.8270 -12.2725  -7.5813  -7.0741  -2.7722   2.9150   6.0472   7.2777
     8.1019   9.5363  10.0534

          k = 0.0000-0.3715 0.1512 (  1650 PWs)   bands (ev):

  -177.5053-108.4386 -72.9282 -69.3366 -51.9075 -35.2742 -34.3338 -26.9710
   -21.8245 -12.2679  -7.5735  -7.0947  -2.8106   2.9728   6.1498   7.4199
     8.0537   9.1943   9.8417

          k = 0.0000-0.3715-0.3024 (  1656 PWs)   bands (ev):

  -177.5267-108.4457 -72.9299 -69.3358 -51.9066 -35.2779 -34.3355 -26.9772
   -21.8344 -12.2704  -7.6400  -7.1241  -2.8465   3.0427   6.2174   7.4695
     7.8364   9.3835  10.0251

          k = 0.2500 0.0000 0.0000 (  1649 PWs)   bands (ev):

  -177.4994-108.4367 -72.9318 -69.3458 -51.9090 -35.2274 -34.3662 -26.7786
   -21.6692 -12.6205  -8.0704  -6.8370  -2.7790   4.3300   6.4614   7.9526
     8.2441   9.4804  10.7399

          k = 0.2500 0.0000 0.1512 (  1670 PWs)   bands (ev):

  -177.5117-108.4414 -72.9344 -69.3489 -51.9112 -35.2325 -34.3684 -26.7812
   -21.6812 -12.6239  -8.1071  -6.8654  -2.8184   4.5341   6.6133   7.3824
     8.4218   9.3826  10.6345

          k = 0.2500 0.0000-0.3024 (  1668 PWs)   bands (ev):

  -177.5219-108.4443 -72.9353 -69.3484 -51.9095 -35.2317 -34.3686 -26.7843
   -21.6877 -12.6243  -8.1229  -6.8932  -2.8493   4.5717   6.5177   7.4544
     8.6037   9.3991  10.8101

          k = 0.2500 0.1857 0.0000 (  1668 PWs)   bands (ev):

  -177.5189-108.4435 -72.9340 -69.3488 -51.9114 -35.2284 -34.3692 -26.7811
   -21.6849 -12.6234  -8.1097  -6.8690  -2.7944   4.1947   6.2917   7.8236
     8.2524   9.7900  10.9256

          k = 0.2500 0.1857 0.1512 (  1660 PWs)   bands (ev):

  -177.5068-108.4410 -72.9332 -69.3478 -51.9113 -35.2282 -34.3684 -26.7744
   -21.6722 -12.6195  -8.0902  -6.8871  -2.8150   4.1900   6.5832   7.5650
     8.5574   9.6633  10.5645

          k = 0.2500 0.1857-0.3024 (  1672 PWs)   bands (ev):

  -177.5166-108.4448 -72.9359 -69.3482 -51.9124 -35.2310 -34.3704 -26.7771
   -21.6816 -12.6196  -8.1128  -6.9176  -2.8535   4.3192   6.3618   7.5626
     8.8480   9.6123  10.7195

          k = 0.2500-0.3715 0.0000 (  1664 PWs)   bands (ev):

  -177.5137-108.4415 -72.9330 -69.3470 -51.9113 -35.2252 -34.3686 -26.7725
   -21.6795 -12.6129  -8.0741  -6.9004  -2.7975   3.7940   6.5628   7.7128
     8.3909   9.5946  10.6429

          k = 0.2500-0.3715 0.1512 (  1670 PWs)   bands (ev):

  -177.5146-108.4429 -72.9333 -69.3486 -51.9110 -35.2259 -34.3697 -26.7750
   -21.6824 -12.6124  -8.0867  -6.9223  -2.8252   3.8468   6.6943   7.9283
     8.2069   9.1653  10.4014

          k = 0.2500-0.3715-0.3024 (  1668 PWs)   bands (ev):

  -177.5154-108.4438 -72.9356 -69.3477 -51.9119 -35.2264 -34.3701 -26.7741
   -21.6795 -12.6104  -8.0939  -6.9443  -2.8505   3.8851   6.6167   7.9592
     8.4334   9.0492  10.4371

          k =-0.5000 0.0000 0.0000 (  1648 PWs)   bands (ev):

  -177.4960-108.4357 -72.9373 -69.3551 -51.9100 -35.1795 -34.3997 -26.5712
   -21.4597 -13.0581  -8.5061  -6.6475  -2.7660   5.7543   7.2781   7.7728
     8.7858   9.7406  10.6147

          k =-0.5000 0.0000 0.1512 (  1656 PWs)   bands (ev):

  -177.5147-108.4405 -72.9372 -69.3551 -51.9106 -35.1802 -34.4003 -26.5737
   -21.4709 -13.0583  -8.5522  -6.6682  -2.7955   5.7338   7.0973   8.1171
     8.7811   9.8135  10.2965

          k =-0.5000 0.0000-0.3024 (  1668 PWs)   bands (ev):

  -177.5232-108.4431 -72.9380 -69.3568 -51.9119 -35.1804 -34.4010 -26.5740
   -21.4755 -13.0625  -8.5660  -6.6903  -2.8196   5.7161   6.9855   8.4126
     8.7961   9.8350  10.0921

          k =-0.5000 0.1857 0.0000 (  1672 PWs)   bands (ev):

  -177.5218-108.4432 -72.9389 -69.3576 -51.9134 -35.1802 -34.4017 -26.5741
   -21.4835 -13.0503  -8.5563  -6.6736  -2.7885   5.1554   7.6138   7.8997
     8.7531   9.4309  10.6679

          k =-0.5000 0.1857 0.1512 (  1664 PWs)   bands (ev):

  -177.5080-108.4408 -72.9379 -69.3560 -51.9128 -35.1791 -34.4019 -26.5748
   -21.4709 -13.0494  -8.5356  -6.6859  -2.8061   5.1113   7.4319   8.1209
     8.8354   9.7213  10.3340

          k =-0.5000 0.1857-0.3024 (  1656 PWs)   bands (ev):

  -177.5108-108.4401 -72.9358 -69.3551 -51.9114 -35.1776 -34.4005 -26.5708
   -21.4647 -13.0472  -8.5234  -6.7060  -2.8224   5.1594   7.3385   8.3425
     8.9049   9.5590  10.0492

          k =-0.5000-0.3715 0.0000 (  1660 PWs)   bands (ev):

  -177.5190-108.4422 -72.9369 -69.3561 -51.9121 -35.1742 -34.4005 -26.5697
   -21.4731 -13.0344  -8.5369  -6.6926  -2.7954   4.7145   7.8629   8.0899
     8.7555   9.0558  10.8069

          k =-0.5000-0.3715 0.1512 (  1680 PWs)   bands (ev):

  -177.5310-108.4474 -72.9397 -69.3572 -51.9141 -35.1791 -34.4033 -26.5778
   -21.4867 -13.0433  -8.5739  -6.7104  -2.8233   4.7189   7.7373   8.1801
     8.7875   9.2416  10.4983

          k =-0.5000-0.3715-0.3024 (  1664 PWs)   bands (ev):

  -177.4962-108.4393 -72.9377 -69.3558 -51.9141 -35.1785 -34.4024 -26.5715
   -21.4638 -13.0396  -8.4885  -6.7253  -2.8378   4.7290   7.6749   8.2705
     8.8102   9.5234  10.1452

          k = 0.0000-0.1857 0.1512 (  1669 PWs)   bands (ev):

  -177.5115-108.4402 -72.9297 -69.3386 -51.9099 -35.2816 -34.3357 -26.9809
   -21.8435 -12.2825  -7.5989  -7.0595  -2.8205   3.2644   6.1508   6.8810
     8.1958   9.4014  10.6225

          k =-0.2500 0.0000 0.1512 (  1670 PWs)   bands (ev):

  -177.5119-108.4430 -72.9363 -69.3482 -51.9114 -35.2328 -34.3685 -26.7830
   -21.6826 -12.6231  -8.0997  -6.8683  -2.8210   4.3631   6.4088   7.8528
     8.5341   9.5025  10.9465

          k =-0.2500 0.1857 0.0000 (  1668 PWs)   bands (ev):

  -177.5192-108.4415 -72.9341 -69.3488 -51.9100 -35.2291 -34.3682 -26.7812
   -21.6844 -12.6175  -8.0961  -6.8717  -2.7930   3.9344   6.6375   7.7763
     8.4093   9.2459  10.6214

          k =-0.2500-0.1857 0.1512 (  1660 PWs)   bands (ev):

  -177.5143-108.4408 -72.9346 -69.3455 -51.9104 -35.2272 -34.3692 -26.7771
   -21.6814 -12.6197  -8.0933  -6.8961  -2.8243   4.3298   6.1226   7.7416
     8.5527   9.8905  10.6692

          k =-0.2500 0.1857-0.1512 (  1660 PWs)   bands (ev):

  -177.5146-108.4391 -72.9326 -69.3464 -51.9086 -35.2265 -34.3681 -26.7782
   -21.6804 -12.6150  -8.0871  -6.8955  -2.8192   4.1448   6.7573   7.4258
     8.4401   8.9150  10.6984

          k = 0.2500-0.1857-0.1512 (  1660 PWs)   bands (ev):

  -177.5072-108.4418 -72.9347 -69.3479 -51.9103 -35.2288 -34.3678 -26.7767
   -21.6732 -12.6110  -8.0718  -6.8925  -2.8157   3.8959   6.6433   7.9254
     8.5963   9.3175  10.7211

          k =-0.2500 0.1857 0.3024 (  1672 PWs)   bands (ev):

  -177.5161-108.4424 -72.9358 -69.3489 -51.9110 -35.2309 -34.3689 -26.7817
   -21.6836 -12.6141  -8.0948  -6.9212  -2.8504   4.0981   6.7464   7.5818
     8.5421   8.9978  10.8587

          k =-0.2500 0.3715 0.1512 (  1670 PWs)   bands (ev):

  -177.5147-108.4432 -72.9352 -69.3471 -51.9115 -35.2265 -34.3694 -26.7740
   -21.6828 -12.6119  -8.0838  -6.9231  -2.8277   3.8218   6.4997   7.8419
     8.6543   9.2776  10.5983

          k = 0.5000-0.1857 0.1512 (  1664 PWs)   bands (ev):

  -177.5183-108.4433 -72.9379 -69.3551 -51.9128 -35.1798 -34.4014 -26.5735
   -21.4732 -13.0520  -8.5441  -6.6899  -2.8072   5.2045   7.4372   8.2418
     8.7529   9.3028  10.3668

     the Fermi energy is     7.2334 ev

!    total energy              =    -139.52173743 Ry
     estimated scf accuracy    <          6.4E-10 Ry
     smearing contrib. (-TS)   =      -0.00366842 Ry
     internal energy E=F+TS    =    -139.51806901 Ry

     The total energy is F=E-TS. E is the sum of the following terms:
     one-electron contribution =    -552.14833434 Ry
     hartree contribution      =     260.15924199 Ry
     xc contribution           =     -47.18902135 Ry
     ewald contribution        =     237.31425952 Ry
     one-center paw contrib.   =     -37.65421482 Ry

     convergence has been achieved in  11 iterations

     Forces acting on atoms (cartesian axes, Ry/au):

     atom    1 type  1   force =     9.56583222    0.58723075   -0.87583820
     atom    2 type  1   force =    -2.58148149  -12.64837929  -29.25993531
     atom    3 type  2   force =    15.24704599   15.92307860  -41.68268527
     atom    4 type  2   force =    12.68905271  -11.48335339   43.42255262
     atom    5 type  2   force =   -18.63886154  -14.81652694   21.33781388
     atom    6 type  2   force =   -16.28158789   22.43795027    7.05809229

     Total force =    85.778053     Total SCF correction =     0.000133


     Computing stress (Cartesian axis) and pressure

          total   stress  (Ry/bohr**3)                   (kbar)     P=    21140.34
   0.08934127   0.01219653   0.00182058        13142.55     1794.17      267.82
   0.01219653   0.11128642  -0.00885630         1794.17    16370.80    -1302.81
   0.00182058  -0.00885630   0.23049959          267.82    -1302.81    33907.66


     BFGS Geometry Optimization
     Energy error            =      8.3E+04 Ry
     Gradient error          =      4.3E+01 Ry/Bohr
     Cell gradient error     =      3.4E+04 kbar

     number of scf cycles    =   1
     number of bfgs steps    =   0

     enthalpy           new  =    -139.5217374332 Ry

     new trust radius        =       0.5000000000 bohr
     new conv_thr            =       0.0000000100 Ry

     new unit-cell volume =    436.05780 a.u.^3 (    64.61710 Ang^3 )
     density =      0.15419 g/cm^3

CELL_PARAMETERS (angstrom)
   3.031230443   0.009573807   0.001429081
   0.012886432   4.103250347  -0.009357257
   0.002362942  -0.011494675   5.195257634

ATOMIC_POSITIONS (angstrom)
Li               0.5686550580        0.5187706117        0.5244225028
Li              -0.0151369911       -0.0727277978       -0.1740560436
O                0.6016825647        0.7447232773       -0.1587373281
O                0.5862697864        0.3117942664        1.2283520543
O               -0.1066481744        0.0485646089        0.5665787975
O               -0.0900073636        1.0216080866        0.6610530737



     Writing config-only to output data dir ./tmp/pwscf.save/ :
     XML data file
     NEW-OLD atomic charge density approx. for the potential
     New effective cutoffs (rho, wfc):  305.81   38.21

     Check: negative core charge=   -0.000003

     total cpu time spent up to now is       13.9 secs

     Self-consistent Calculation

     iteration #  1     ecut=    40.00 Ry     beta= 0.70
     Davidson diagonalization with overlap
     c_bands:  1 eigenvalues not converged
     c_bands:  1 eigenvalues not converged
     c_bands:  1 eigenvalues not converged
     c_bands:  1 eigenvalues not converged
     c_bands:  1 eigenvalues not converged
     c_bands:  1 eigenvalues not converged
     c_bands:  1 eigenvalues not converged
     c_bands:  1 eigenvalues not converged
     c_bands:  1 eigenvalues not converged
     c_bands:  1 eigenvalues not converged
     c_bands:  1 eigenvalues not converged
     c_bands:  1 eigenvalues not converged
     c_bands:  1 eigenvalues not converged
     c_bands:  1 eigenvalues not converged
     c_bands:  1 eigenvalues not converged
     c_bands:  1 eigenvalues not converged
     c_bands:  1 eigenvalues not converged
     c_bands:  2 eigenvalues not converged
     c_bands:  1 eigenvalues not converged
     c_bands:  1 eigenvalues not converged
     ethr =  1.00E-06,  avg # of iterations = 19.5

     total cpu time spent up to now is       19.0 secs

     total energy              =    -179.18566068 Ry
     estimated scf accuracy    <       2.04334807 Ry

     iteration #  2     ecut=    40.00 Ry     beta= 0.70
     Davidson diagonalization with overlap
     ethr =  6.81E-03,  avg # of iterations =  2.0

     total cpu time spent up to now is       20.1 secs

     total energy              =    -179.45687086 Ry
     estimated scf accuracy    <       1.02387458 Ry

     iteration #  3     ecut=    40.00 Ry     beta= 0.70
     Davidson diagonalization with overlap
     ethr =  3.41E-03,  avg # of iterations =  2.0

     total cpu time spent up to now is       21.0 secs

     total energy              =    -179.67488632 Ry
     estimated scf accuracy    <       0.58004149 Ry

     iteration #  4     ecut=    40.00 Ry     beta= 0.70
     Davidson diagonalization with overlap
     ethr =  1.93E-03,  avg # of iterations =  2.0

     total cpu time spent up to now is       21.9 secs

     total energy              =    -179.76026967 Ry
     estimated scf accuracy    <       0.02137298 Ry

     iteration #  5     ecut=    40.00 Ry     beta= 0.70
     Davidson diagonalization with overlap
     ethr =  7.12E-05,  avg # of iterations =  5.6

     total cpu time spent up to now is       23.1 secs

     total energy              =    -179.76553304 Ry
     estimated scf accuracy    <       0.00150218 Ry

     iteration #  6     ecut=    40.00 Ry     beta= 0.70
     Davidson diagonalization with overlap
     ethr =  5.01E-06,  avg # of iterations =  4.8

     total cpu time spent up to now is       24.3 secs

     total energy              =    -179.76587010 Ry
     estimated scf accuracy    <       0.00032968 Ry

     iteration #  7     ecut=    40.00 Ry     beta= 0.70
     Davidson diagonalization with overlap
     ethr =  1.10E-06,  avg # of iterations =  2.6

     total cpu time spent up to now is       25.3 secs

     total energy              =    -179.76592374 Ry
     estimated scf accuracy    <       0.00008299 Ry

     iteration #  8     ecut=    40.00 Ry     beta= 0.70
     Davidson diagonalization with overlap
     ethr =  2.77E-07,  avg # of iterations =  2.0

     total cpu time spent up to now is       26.2 secs

     total energy              =    -179.76594184 Ry
     estimated scf accuracy    <       0.00000882 Ry

     iteration #  9     ecut=    40.00 Ry     beta= 0.70
     Davidson diagonalization with overlap
     ethr =  2.94E-08,  avg # of iterations =  2.4

     total cpu time spent up to now is       27.2 secs

     total energy              =    -179.76594383 Ry
     estimated scf accuracy    <       0.00000103 Ry

     iteration # 10     ecut=    40.00 Ry     beta= 0.70
     Davidson diagonalization with overlap
     ethr =  3.42E-09,  avg # of iterations =  2.8

     total cpu time spent up to now is       28.2 secs

     total energy              =    -179.76594408 Ry
     estimated scf accuracy    <       0.00000008 Ry

     iteration # 11     ecut=    40.00 Ry     beta= 0.70
     Davidson diagonalization with overlap
     ethr =  2.53E-10,  avg # of iterations =  3.2

     total cpu time spent up to now is       29.3 secs

     End of self-consistent calculation

          k = 0.0000 0.0000 0.0000 (  1687 PWs)   bands (ev):

   -89.7500 -62.2653 -41.6520 -35.8174 -22.8661 -19.6322 -15.1039 -14.3017
   -12.1446  -7.2985  -4.3262  -2.5460  -1.4960   3.1504   4.6795   5.2695
     6.8793   9.3258  10.4178

          k =-0.0001 0.0003 0.1425 (  1683 PWs)   bands (ev):

   -89.7502 -62.2651 -41.6520 -35.8162 -22.8662 -19.6303 -15.0987 -14.3019
   -12.1354  -7.2987  -4.3514  -2.6595  -1.4953   3.1700   4.7816   5.6364
     6.8562   8.7127  10.8453

          k = 0.0001-0.0007-0.2850 (  1670 PWs)   bands (ev):

   -89.7498 -62.2649 -41.6511 -35.8153 -22.8660 -19.6265 -15.0950 -14.3003
   -12.1253  -7.2975  -4.3780  -2.7603  -1.4888   3.1886   4.8288   6.2128
     6.8423   8.0361  11.0500

          k =-0.0006 0.1804 0.0004 (  1677 PWs)   bands (ev):

   -89.7495 -62.2651 -41.6517 -35.8198 -22.8781 -19.5999 -15.1026 -14.2739
   -12.1244  -7.3334  -4.3388  -2.5266  -1.4763   2.8574   4.8195   5.4115
     6.6177   8.6724  10.8889

          k =-0.0006 0.1807 0.1429 (  1669 PWs)   bands (ev):

   -89.7493 -62.2648 -41.6506 -35.8187 -22.8777 -19.5969 -15.0978 -14.2733
   -12.1159  -7.3324  -4.3554  -2.6205  -1.4750   2.8795   4.7414   5.6170
     6.6801   9.2405  10.0211

          k =-0.0004 0.1798-0.2846 (  1680 PWs)   bands (ev):

   -89.7498 -62.2651 -41.6521 -35.8190 -22.8784 -19.5971 -15.0953 -14.2754
   -12.1082  -7.3336  -4.3806  -2.7253  -1.4762   2.9565   4.8722   5.8165
     6.7443   7.9913  11.2261

          k = 0.0011-0.3608-0.0008 (  1648 PWs)   bands (ev):

   -89.7486 -62.2642 -41.6502 -35.8211 -22.8889 -19.5650 -15.0998 -14.2437
   -12.1016  -7.3661  -4.3479  -2.5021  -1.4523   2.5950   4.9637   5.4676
     6.4547   8.7925  10.5203

          k = 0.0011-0.3605 0.1417 (  1650 PWs)   bands (ev):

   -89.7486 -62.2641 -41.6506 -35.8210 -22.8884 -19.5637 -15.0956 -14.2443
   -12.0939  -7.3664  -4.3637  -2.5945  -1.4554   2.6488   4.9765   5.5152
     6.5743   8.2845  10.1452

          k = 0.0013-0.3615-0.2858 (  1656 PWs)   bands (ev):

   -89.7486 -62.2642 -41.6509 -35.8207 -22.8874 -19.5623 -15.0933 -14.2472
   -12.0861  -7.3654  -4.3796  -2.6837  -1.4597   2.7124   4.9918   5.5671
     6.5629   7.8296  10.9554

          k = 0.2442-0.0008-0.0001 (  1649 PWs)   bands (ev):

   -89.7478 -62.2653 -41.6836 -35.8480 -22.8531 -19.6525 -15.1973 -13.5441
   -12.1964  -7.5368  -4.2455  -2.5189  -2.1947   3.3853   5.5157   5.7042
     7.1168   9.7487  10.5891

          k = 0.2442-0.0004 0.1424 (  1670 PWs)   bands (ev):

   -89.7483 -62.2657 -41.6850 -35.8495 -22.8552 -19.6525 -15.1990 -13.5445
   -12.1934  -7.5384  -4.2588  -2.5609  -2.2524   3.3882   5.3948   6.1751
     7.1579   9.1575  10.5772

          k = 0.2444-0.0014-0.2851 (  1668 PWs)   bands (ev):

   -89.7478 -62.2657 -41.6860 -35.8488 -22.8550 -19.6516 -15.1983 -13.5430
   -12.1848  -7.5380  -4.2742  -2.6576  -2.2400   3.4094   5.3215   6.6026
     7.1715   8.7313  10.7978

          k = 0.2436 0.1796 0.0003 (  1668 PWs)   bands (ev):

   -89.7481 -62.2657 -41.6848 -35.8523 -22.8660 -19.6254 -15.1964 -13.5205
   -12.1800  -7.5941  -4.2447  -2.4862  -2.1880   3.3053   5.3975   5.7645
     6.8278   9.2841  11.0357

          k = 0.2436 0.1800 0.1428 (  1660 PWs)   bands (ev):

   -89.7484 -62.2655 -41.6839 -35.8521 -22.8665 -19.6227 -15.1953 -13.5176
   -12.1759  -7.5927  -4.2494  -2.5164  -2.2352   3.3046   5.2145   6.0603
     6.8384   9.7208  10.5915

          k = 0.2438 0.1790-0.2847 (  1672 PWs)   bands (ev):

   -89.7486 -62.2657 -41.6856 -35.8523 -22.8667 -19.6226 -15.1950 -13.5180
   -12.1689  -7.5952  -4.2659  -2.6128  -2.2232   3.3461   5.2023   6.3114
     6.9362   8.7624  11.2175

          k = 0.2454-0.3616-0.0009 (  1664 PWs)   bands (ev):

   -89.7485 -62.2659 -41.6847 -35.8549 -22.8770 -19.5945 -15.1955 -13.4988
   -12.1708  -7.6006  -4.2587  -2.4847  -2.1456   3.0821   5.4179   5.6804
     6.8536   9.5249  10.9420

          k = 0.2453-0.3613 0.1416 (  1670 PWs)   bands (ev):

   -89.7486 -62.2657 -41.6849 -35.8549 -22.8768 -19.5947 -15.1941 -13.4973
   -12.1676  -7.5999  -4.2669  -2.5169  -2.1901   3.1022   5.3739   5.7660
     6.9384   9.2074  10.3326

          k = 0.2455-0.3622-0.2859 (  1668 PWs)   bands (ev):

   -89.7488 -62.2657 -41.6852 -35.8552 -22.8767 -19.5930 -15.1917 -13.4963
   -12.1605  -7.6006  -4.2783  -2.6001  -2.1797   3.1522   5.3302   5.8427
     7.0309   8.6474  10.9368

          k =-0.4884 0.0015 0.0002 (  1648 PWs)   bands (ev):

   -89.7462 -62.2663 -41.7187 -35.8800 -22.8408 -19.6664 -15.3507 -12.8183
   -12.0120  -7.7457  -4.4002  -3.1166  -2.2535   3.6503   5.6808   7.5095
     7.9296   9.0756  10.7432

          k =-0.4885 0.0019 0.1427 (  1656 PWs)   bands (ev):

   -89.7467 -62.2666 -41.7192 -35.8796 -22.8429 -19.6661 -15.3528 -12.8136
   -12.0100  -7.7474  -4.4004  -3.1092  -2.3360   3.6538   5.6640   7.5270
     8.1797   8.8032  10.6487

          k =-0.4883 0.0009-0.2848 (  1668 PWs)   bands (ev):

   -89.7471 -62.2668 -41.7192 -35.8806 -22.8441 -19.6638 -15.3527 -12.8100
   -12.0081  -7.7500  -4.3996  -3.1024  -2.4174   3.6581   5.6499   7.5337
     8.2820   8.8015  10.6967

          k =-0.4890 0.1819 0.0006 (  1672 PWs)   bands (ev):

   -89.7472 -62.2668 -41.7200 -35.8834 -22.8540 -19.6423 -15.3510 -12.7998
   -12.0049  -7.7736  -4.3906  -3.0931  -2.2500   3.6184   5.6379   6.8513
     7.9488   9.2300  10.9997

          k =-0.4891 0.1823 0.1431 (  1664 PWs)   bands (ev):

   -89.7475 -62.2667 -41.7189 -35.8832 -22.8542 -19.6391 -15.3504 -12.7952
   -12.0036  -7.7741  -4.3885  -3.0818  -2.3181   3.6227   5.6085   6.8709
     8.0519   9.0437  11.0138

          k =-0.4889 0.1813-0.2844 (  1656 PWs)   bands (ev):

   -89.7466 -62.2665 -41.7181 -35.8828 -22.8530 -19.6380 -15.3482 -12.7902
   -11.9991  -7.7720  -4.3833  -3.0718  -2.3988   3.6381   5.6003   6.9414
     8.2812   8.9479  10.8093

          k =-0.4873-0.3593-0.0006 (  1660 PWs)   bands (ev):

   -89.7468 -62.2665 -41.7197 -35.8863 -22.8633 -19.6134 -15.3468 -12.7796
   -11.9925  -7.7960  -4.3803  -3.0587  -2.2447   3.5846   5.6196   6.3112
     8.0085   9.3883  11.1402

          k =-0.4874-0.3590 0.1419 (  1680 PWs)   bands (ev):

   -89.7480 -62.2671 -41.7205 -35.8872 -22.8650 -19.6130 -15.3496 -12.7762
   -11.9975  -7.7981  -4.3793  -3.0519  -2.3174   3.5882   5.5852   6.3467
     8.1443   9.4595  10.7867

          k =-0.4872-0.3599-0.2856 (  1664 PWs)   bands (ev):

   -89.7475 -62.2665 -41.7184 -35.8860 -22.8635 -19.6121 -15.3459 -12.7709
   -11.9937  -7.7970  -4.3770  -3.0358  -2.3848   3.6059   5.5598   6.3839
     8.2969   9.4512  10.7633

          k = 0.0005-0.1801 0.1421 (  1669 PWs)   bands (ev):

   -89.7497 -62.2645 -41.6513 -35.8190 -22.8768 -19.5977 -15.0970 -14.2736
   -12.1157  -7.3329  -4.3573  -2.6343  -1.4744   2.9352   4.9848   5.6085
     6.6845   7.8769  10.9243

          k =-0.2443 0.0011 0.1426 (  1670 PWs)   bands (ev):

   -89.7482 -62.2656 -41.6857 -35.8490 -22.8550 -19.6519 -15.1987 -13.5453
   -12.1901  -7.5398  -4.2638  -2.6066  -2.2012   3.4010   5.3458   6.1991
     7.0654   9.3355  10.9676

          k =-0.2448 0.1812 0.0005 (  1668 PWs)   bands (ev):

   -89.7480 -62.2659 -41.6851 -35.8517 -22.8660 -19.6243 -15.1995 -13.5249
   -12.1887  -7.5452  -4.2599  -2.5240  -2.1558   3.1725   5.4665   5.7808
     6.9922   9.2878  11.0025

          k =-0.2437-0.1793 0.1422 (  1660 PWs)   bands (ev):

   -89.7479 -62.2655 -41.6854 -35.8512 -22.8649 -19.6234 -15.1937 -13.5192
   -12.1722  -7.5943  -4.2558  -2.5678  -2.1907   3.3489   5.3241   6.1043
     6.9166   8.6481  10.9925

          k =-0.2447 0.1809-0.1420 (  1660 PWs)   bands (ev):

   -89.7479 -62.2655 -41.6843 -35.8515 -22.8644 -19.6226 -15.1963 -13.5217
   -12.1843  -7.5439  -4.2686  -2.5630  -2.2051   3.2117   5.5534   5.9701
     7.1021   8.5167  10.8844

          k = 0.2449-0.1815-0.1430 (  1660 PWs)   bands (ev):

   -89.7482 -62.2657 -41.6853 -35.8515 -22.8660 -19.6211 -15.1953 -13.5243
   -12.1805  -7.5461  -4.2728  -2.5988  -2.1557   3.2013   5.3714   5.9280
     6.9715   9.9659  10.7137

          k =-0.2449 0.1818 0.2855 (  1672 PWs)   bands (ev):

   -89.7484 -62.2658 -41.6857 -35.8522 -22.8668 -19.6211 -15.1955 -13.5222
   -12.1773  -7.5460  -4.2854  -2.6482  -2.1960   3.2401   5.4551   6.1027
     7.0580   8.7460  10.9808

          k =-0.2454 0.3619 0.1434 (  1670 PWs)   bands (ev):

   -89.7484 -62.2658 -41.6853 -35.8549 -22.8772 -19.5944 -15.1933 -13.4989
   -12.1645  -7.6015  -4.2719  -2.5586  -2.1484   3.1253   5.3549   5.7717
     6.9515   9.1902  10.5704

          k = 0.4889-0.1816 0.1419 (  1664 PWs)   bands (ev):

   -89.7472 -62.2666 -41.7192 -35.8833 -22.8528 -19.6385 -15.3496 -12.7949
   -12.0030  -7.7729  -4.3874  -3.0805  -2.3303   3.6307   5.6292   6.9299
     8.1854   9.1654  10.5028

     the Fermi energy is     5.6177 ev

!    total energy              =    -179.76594411 Ry
     estimated scf accuracy    <          8.0E-09 Ry
     smearing contrib. (-TS)   =      -0.00967858 Ry
     internal energy E=F+TS    =    -179.75626553 Ry

     The total energy is F=E-TS. E is the sum of the following terms:
     one-electron contribution =    -363.73808953 Ry
     hartree contribution      =     184.57348574 Ry
     xc contribution           =     -41.42971677 Ry
     ewald contribution        =      78.89819022 Ry
     one-center paw contrib.   =     -38.06013519 Ry

     convergence has been achieved in  11 iterations

     Forces acting on atoms (cartesian axes, Ry/au):

     atom    1 type  1   force =     6.44916261    0.07251600   -0.85090804
     atom    2 type  1   force =    -1.12641438   -2.57533192   -6.37829545
     atom    3 type  2   force =     3.37240044    2.96330277   -5.37107468
     atom    4 type  2   force =     2.85833581   -1.81348891    6.36951130
     atom    5 type  2   force =    -5.86955737   -4.87122059    5.37904520
     atom    6 type  2   force =    -5.68392711    6.22422265    0.85172166

     Total force =    18.730323     Total SCF correction =     0.000211


     Computing stress (Cartesian axis) and pressure

          total   stress  (Ry/bohr**3)                   (kbar)     P=     6174.11
   0.03706535   0.00308781  -0.00196604         5452.50      454.23     -289.22
   0.00308781   0.03388712  -0.00389504          454.23     4984.97     -572.98
  -0.00196604  -0.00389504   0.05495982         -289.22     -572.98     8084.87

     Energy error            =      4.0E+01 Ry
     Gradient error          =      6.4E+00 Ry/Bohr
     Cell gradient error     =      8.1E+03 kbar

     number of scf cycles    =   2
     number of bfgs steps    =   1

     enthalpy           old  =    -139.5217374332 Ry
     enthalpy           new  =    -179.7659441063 Ry

     CASE: enthalpy          _new < enthalpy          _old

     new trust radius        =       0.8000000000 bohr
     new conv_thr            =       0.0000000100 Ry

     new unit-cell volume =    523.47416 a.u.^3 (    77.57087 Ang^3 )
     density =      0.12844 g/cm^3

CELL_PARAMETERS (angstrom)
   3.304478673   0.019005876  -0.029717298
   0.024975811   4.335808389  -0.047126701
  -0.047534434  -0.056528541   5.415307207

ATOMIC_POSITIONS (angstrom)
Li               1.0725544474        0.5465536121        0.4619319468
Li              -0.0768533755       -0.0803430593       -0.2563255153
O                0.6907180470        0.7703218477        0.0945791817
O                0.6626313430        0.3682218672        1.0660863580
O               -0.3409847671       -0.1495343108        0.7272052303
O               -0.3427270598        1.2451676695        0.6270271536



     Writing config-only to output data dir ./tmp/pwscf.save/ :
     XML data file
     NEW-OLD atomic charge density approx. for the potential
     New effective cutoffs (rho, wfc):  272.32   34.10

     Check: negative core charge=   -0.000007

     total cpu time spent up to now is       30.2 secs

     Self-consistent Calculation

     iteration #  1     ecut=    40.00 Ry     beta= 0.70
     Davidson diagonalization with overlap
     c_bands:  1 eigenvalues not converged
     c_bands:  1 eigenvalues not converged
     c_bands:  1 eigenvalues not converged
     c_bands:  1 eigenvalues not converged
     c_bands:  1 eigenvalues not converged
     c_bands:  1 eigenvalues not converged
     c_bands:  1 eigenvalues not converged
     c_bands:  1 eigenvalues not converged
     c_bands:  1 eigenvalues not converged
     c_bands:  1 eigenvalues not converged
     c_bands:  1 eigenvalues not converged
     c_bands:  2 eigenvalues not converged
     c_bands:  1 eigenvalues not converged
     c_bands:  1 eigenvalues not converged
     c_bands:  1 eigenvalues not converged
     c_bands:  1 eigenvalues not converged
     c_bands:  1 eigenvalues not converged
     c_bands:  1 eigenvalues not converged
     c_bands:  1 eigenvalues not converged
     c_bands:  1 eigenvalues not converged
     c_bands:  1 eigenvalues not converged
     c_bands:  1 eigenvalues not converged
     c_bands:  1 eigenvalues not converged
     c_bands:  1 eigenvalues not converged
     c_bands:  1 eigenvalues not converged
     c_bands:  1 eigenvalues not converged
     c_bands:  2 eigenvalues not converged
     c_bands:  1 eigenvalues not converged
     c_bands:  2 eigenvalues not converged
     c_bands:  1 eigenvalues not converged
     ethr =  1.00E-06,  avg # of iterations = 19.5

     total cpu time spent up to now is       35.3 secs

     total energy              =    -183.80552094 Ry
     estimated scf accuracy    <       1.24704597 Ry

     iteration #  2     ecut=    40.00 Ry     beta= 0.70
     Davidson diagonalization with overlap
     ethr =  4.16E-03,  avg # of iterations =  3.2

     total cpu time spent up to now is       36.4 secs

     total energy              =    -183.76867307 Ry
     estimated scf accuracy    <       4.95797359 Ry

     iteration #  3     ecut=    40.00 Ry     beta= 0.70
     Davidson diagonalization with overlap
     ethr =  4.16E-03,  avg # of iterations =  2.4

     total cpu time spent up to now is       37.4 secs

     total energy              =    -184.36087540 Ry
     estimated scf accuracy    <       0.17375102 Ry

     iteration #  4     ecut=    40.00 Ry     beta= 0.70
     Davidson diagonalization with overlap
     ethr =  5.79E-04,  avg # of iterations =  2.9

     total cpu time spent up to now is       38.5 secs

     total energy              =    -184.41001164 Ry
     estimated scf accuracy    <       0.08154807 Ry

     iteration #  5     ecut=    40.00 Ry     beta= 0.70
     Davidson diagonalization with overlap
     ethr =  2.72E-04,  avg # of iterations =  2.0

     total cpu time spent up to now is       39.4 secs

     total energy              =    -184.42324042 Ry
     estimated scf accuracy    <       0.00882510 Ry

     iteration #  6     ecut=    40.00 Ry     beta= 0.70
     Davidson diagonalization with overlap
     ethr =  2.94E-05,  avg # of iterations =  2.6

     total cpu time spent up to now is       40.4 secs

     total energy              =    -184.42523300 Ry
     estimated scf accuracy    <       0.00221746 Ry

     iteration #  7     ecut=    40.00 Ry     beta= 0.70
     Davidson diagonalization with overlap
     ethr =  7.39E-06,  avg # of iterations =  3.8

     total cpu time spent up to now is       41.3 secs

     total energy              =    -184.42534136 Ry
     estimated scf accuracy    <       0.00024142 Ry

     iteration #  8     ecut=    40.00 Ry     beta= 0.70
     Davidson diagonalization with overlap
     ethr =  8.05E-07,  avg # of iterations =  3.7

     total cpu time spent up to now is       42.3 secs

     total energy              =    -184.42538756 Ry
     estimated scf accuracy    <       0.00000956 Ry

     iteration #  9     ecut=    40.00 Ry     beta= 0.70
     Davidson diagonalization with overlap
     ethr =  3.19E-08,  avg # of iterations =  3.4

     total cpu time spent up to now is       43.5 secs

     total energy              =    -184.42539116 Ry
     estimated scf accuracy    <       0.00000397 Ry

     iteration # 10     ecut=    40.00 Ry     beta= 0.70
     Davidson diagonalization with overlap
     ethr =  1.32E-08,  avg # of iterations =  2.0

     total cpu time spent up to now is       44.3 secs

     total energy              =    -184.42539168 Ry
     estimated scf accuracy    <       0.00000056 Ry

     iteration # 11     ecut=    40.00 Ry     beta= 0.70
     Davidson diagonalization with overlap
     ethr =  1.86E-09,  avg # of iterations =  2.1

     total cpu time spent up to now is       45.3 secs

     total energy              =    -184.42539176 Ry
     estimated scf accuracy    <       0.00000004 Ry

     iteration # 12     ecut=    40.00 Ry     beta= 0.70
     Davidson diagonalization with overlap
     ethr =  1.40E-10,  avg # of iterations =  3.9

     total cpu time spent up to now is       46.3 secs

     End of self-consistent calculation

          k = 0.0000 0.0000 0.0000 (  1687 PWs)   bands (ev):

   -88.9158 -50.0262 -35.9894 -25.9120 -20.4675 -17.8374 -13.6544 -12.3708
   -10.2064  -8.3235  -5.4923  -2.1203   0.4597   1.4849   2.9655   4.2105
     5.1677   5.8416   8.3056

          k = 0.0012 0.0015 0.1367 (  1683 PWs)   bands (ev):

   -88.9157 -50.0263 -35.9903 -25.9123 -20.4695 -17.8374 -13.6483 -12.3700
   -10.2050  -8.3211  -5.4901  -2.1190   0.4634   1.4598   2.6270   4.2252
     5.1739   6.4409   8.3415

          k =-0.0024-0.0030-0.2735 (  1670 PWs)   bands (ev):

   -88.9148 -50.0260 -35.9885 -25.9107 -20.4681 -17.8357 -13.6451 -12.3671
   -10.2048  -8.3164  -5.4832  -2.1118   0.4690   1.4346   2.3793   4.2334
     5.1926   7.0449   8.2274

          k =-0.0010 0.1708 0.0018 (  1677 PWs)   bands (ev):

   -88.9151 -50.0259 -35.9879 -25.9210 -20.4752 -17.8156 -13.6384 -12.3927
   -10.1820  -8.3347  -5.3115  -2.1554   0.4442   1.4796   2.9768   3.7834
     5.1303   6.0079   8.2696

          k = 0.0003 0.1722 0.1385 (  1669 PWs)   bands (ev):

   -88.9152 -50.0260 -35.9896 -25.9219 -20.4749 -17.8167 -13.6265 -12.3901
   -10.1800  -8.3323  -5.3072  -2.1417   0.4439   1.4767   2.8414   3.5201
     5.0828   6.9132   8.0362

          k =-0.0034 0.1678-0.2717 (  1680 PWs)   bands (ev):

   -88.9154 -50.0262 -35.9903 -25.9231 -20.4770 -17.8183 -13.6300 -12.3935
   -10.1859  -8.3335  -5.3125  -2.1439   0.4391   1.4430   2.6662   3.5311
     5.0231   6.9171   8.1195

          k = 0.0019-0.3415-0.0035 (  1648 PWs)   bands (ev):

   -88.9139 -50.0254 -35.9866 -25.9305 -20.4812 -17.7917 -13.6140 -12.4092
   -10.1520  -8.3389  -5.1047  -2.1910   0.4376   1.4707   2.6311   3.8255
     5.1047   6.5656   7.2811

          k = 0.0032-0.3400 0.1332 (  1650 PWs)   bands (ev):

   -88.9142 -50.0256 -35.9878 -25.9312 -20.4811 -17.7944 -13.6045 -12.4105
   -10.1529  -8.3370  -5.1034  -2.1799   0.4338   1.4618   2.6783   3.5276
     4.9527   6.6352   7.4907

          k =-0.0005-0.3445-0.2770 (  1656 PWs)   bands (ev):

   -88.9144 -50.0258 -35.9906 -25.9311 -20.4808 -17.7973 -13.6036 -12.4115
   -10.1571  -8.3368  -5.1034  -2.1786   0.4265   1.4445   2.7361   3.2588
     4.9681   6.2174   7.9671

          k = 0.2240-0.0013 0.0020 (  1649 PWs)   bands (ev):

   -88.9139 -50.0298 -36.0269 -25.8592 -20.4897 -17.4231 -13.8766 -12.4900
   -10.2016  -8.2041  -5.4820  -2.1503   0.2786   1.2116   3.6479   4.2263
     4.8673   6.6331   8.0655

          k = 0.2253 0.0002 0.1387 (  1670 PWs)   bands (ev):

   -88.9146 -50.0306 -36.0286 -25.8612 -20.4924 -17.4243 -13.8845 -12.4934
   -10.2065  -8.2089  -5.4873  -2.1437   0.2581   1.1977   3.4100   4.0903
     4.8819   7.0227   8.4550

          k = 0.2216-0.0042-0.2715 (  1668 PWs)   bands (ev):

   -88.9150 -50.0305 -36.0291 -25.8598 -20.4934 -17.4255 -13.8805 -12.4898
   -10.2056  -8.2027  -5.4885  -2.1460   0.2497   1.1995   3.0866   4.0497
     5.0965   7.3409   8.5800

          k = 0.2231 0.1695 0.0037 (  1668 PWs)   bands (ev):

   -88.9148 -50.0302 -36.0279 -25.8695 -20.5002 -17.4049 -13.8708 -12.5401
   -10.1780  -8.2035  -5.3191  -2.1893   0.3547   1.2225   3.3896   3.8389
     5.0321   6.5651   8.1224

          k = 0.2243 0.1710 0.1405 (  1660 PWs)   bands (ev):

   -88.9143 -50.0299 -36.0273 -25.8690 -20.4997 -17.4006 -13.8610 -12.5380
   -10.1734  -8.2038  -5.3164  -2.1734   0.3468   1.2175   3.4019   3.6626
     4.6797   7.2692   8.2840

          k = 0.2206 0.1665-0.2697 (  1672 PWs)   bands (ev):

   -88.9149 -50.0305 -36.0293 -25.8706 -20.5008 -17.4042 -13.8668 -12.5387
   -10.1748  -8.2033  -5.3202  -2.1734   0.3351   1.2118   3.2187   3.4918
     4.8830   7.4625   8.3627

          k = 0.2260-0.3428-0.0016 (  1664 PWs)   bands (ev):

   -88.9143 -50.0301 -36.0276 -25.8795 -20.5031 -17.3868 -13.8621 -12.5530
   -10.1593  -8.2102  -5.1153  -2.2040   0.2975   1.2090   2.7392   4.1464
     5.0484   7.0470   7.8576

          k = 0.2272-0.3413 0.1351 (  1670 PWs)   bands (ev):

   -88.9147 -50.0301 -36.0284 -25.8796 -20.5055 -17.3872 -13.8595 -12.5531
   -10.1589  -8.2096  -5.1180  -2.1961   0.2868   1.2001   2.7743   4.0472
     4.7824   6.9268   7.9806

          k = 0.2235-0.3457-0.2750 (  1668 PWs)   bands (ev):

   -88.9150 -50.0299 -36.0283 -25.8793 -20.5060 -17.3873 -13.8548 -12.5498
   -10.1601  -8.2056  -5.1225  -2.1856   0.2807   1.2035   2.8023   3.7253
     4.8855   7.0154   7.9360

          k =-0.4481 0.0025-0.0039 (  1648 PWs)   bands (ev):

   -88.9137 -50.0347 -36.0664 -25.8053 -20.5122 -16.9878 -14.1504 -12.5381
   -10.2097  -8.0563  -5.5629  -2.3768   0.1089   0.9542   4.0616   4.2211
     6.2465   6.5708   8.2349

          k =-0.4469 0.0040 0.1328 (  1656 PWs)   bands (ev):

   -88.9140 -50.0348 -36.0677 -25.8063 -20.5165 -16.9869 -14.1590 -12.5404
   -10.2160  -8.0531  -5.5628  -2.3716   0.1098   0.9434   3.8877   4.1755
     6.2568   6.6608   8.3407

          k =-0.4505-0.0004-0.2774 (  1668 PWs)   bands (ev):

   -88.9137 -50.0348 -36.0686 -25.8067 -20.5176 -16.9869 -14.1601 -12.5396
   -10.2183  -8.0532  -5.5722  -2.3586   0.1049   0.9248   3.7044   4.1532
     6.2339   6.8347   7.9853

          k =-0.4491 0.1733-0.0021 (  1672 PWs)   bands (ev):

   -88.9148 -50.0349 -36.0667 -25.8164 -20.5239 -16.9709 -14.1503 -12.5798
   -10.1894  -8.0605  -5.3883  -2.3918   0.1066   0.9637   3.4659   4.1520
     6.3683   6.9485   8.2530

          k =-0.4478 0.1748 0.1346 (  1664 PWs)   bands (ev):

   -88.9146 -50.0347 -36.0685 -25.8161 -20.5230 -16.9727 -14.1463 -12.5756
   -10.1892  -8.0565  -5.3821  -2.3701   0.1049   0.9567   3.4838   3.9980
     6.4647   6.7536   8.6421

          k =-0.4515 0.1703-0.2756 (  1656 PWs)   bands (ev):

   -88.9139 -50.0344 -36.0655 -25.8132 -20.5212 -16.9683 -14.1446 -12.5716
   -10.1847  -8.0518  -5.3863  -2.3612   0.1062   0.9444   3.4902   3.8263
     6.4600   6.9004   8.3969

          k =-0.4462-0.3390-0.0075 (  1660 PWs)   bands (ev):

   -88.9145 -50.0344 -36.0646 -25.8232 -20.5285 -16.9514 -14.1362 -12.6099
   -10.1608  -8.0565  -5.1813  -2.3947   0.1040   0.9883   2.8865   4.1814
     6.5814   7.2440   8.3183

          k =-0.4449-0.3375 0.1293 (  1680 PWs)   bands (ev):

   -88.9150 -50.0350 -36.0696 -25.8255 -20.5299 -16.9567 -14.1427 -12.6143
   -10.1669  -8.0615  -5.1904  -2.3856   0.0922   0.9635   2.8971   4.0272
     6.6592   7.1092   8.5275

          k =-0.4486-0.3419-0.2809 (  1664 PWs)   bands (ev):

   -88.9147 -50.0346 -36.0681 -25.8244 -20.5280 -16.9566 -14.1330 -12.6055
   -10.1616  -8.0509  -5.1875  -2.3603   0.0897   0.9607   2.9176   3.8930
     6.7197   7.0579   8.6732

          k = 0.0022-0.1693 0.1350 (  1669 PWs)   bands (ev):

   -88.9148 -50.0258 -35.9873 -25.9205 -20.4739 -17.8150 -13.6307 -12.3911
   -10.1794  -8.3334  -5.3123  -2.1475   0.4457   1.4598   2.8319   3.7084
     4.9493   6.4402   8.2878

          k =-0.2228 0.0027 0.1348 (  1670 PWs)   bands (ev):

   -88.9150 -50.0305 -36.0292 -25.8605 -20.4931 -17.4270 -13.8834 -12.4907
   -10.2067  -8.2043  -5.4889  -2.1574   0.2669   1.2058   3.2863   4.0827
     5.1763   6.9767   8.1022

          k =-0.2250 0.1720-0.0002 (  1668 PWs)   bands (ev):

   -88.9146 -50.0302 -36.0286 -25.8702 -20.4970 -17.4096 -13.8788 -12.5080
   -10.1870  -8.2169  -5.3012  -2.1675   0.2207   1.1934   3.2085   4.3304
     4.7753   6.8356   8.3449

          k =-0.2219-0.1680 0.1330 (  1660 PWs)   bands (ev):

   -88.9145 -50.0302 -36.0283 -25.8693 -20.4975 -17.4046 -13.8670 -12.5368
   -10.1736  -8.1984  -5.3192  -2.1856   0.3505   1.2254   3.3141   3.5542
     5.1909   6.8409   8.2766

          k =-0.2262 0.1706-0.1369 (  1660 PWs)   bands (ev):

   -88.9142 -50.0303 -36.0282 -25.8701 -20.4961 -17.4084 -13.8747 -12.5046
   -10.1850  -8.2124  -5.3022  -2.1569   0.2082   1.1944   3.2150   4.0536
     4.8271   6.7411   8.6780

          k = 0.2238-0.1735-0.1365 (  1660 PWs)   bands (ev):

   -88.9146 -50.0300 -36.0270 -25.8688 -20.4992 -17.4082 -13.8691 -12.5016
   -10.1878  -8.2115  -5.2987  -2.1633   0.2185   1.1993   3.1914   3.9492
     4.8401   7.6739   8.0647

          k =-0.2226 0.1750 0.2733 (  1672 PWs)   bands (ev):

   -88.9151 -50.0305 -36.0294 -25.8710 -20.5008 -17.4100 -13.8718 -12.5048
   -10.1896  -8.2142  -5.3049  -2.1558   0.2017   1.1898   3.1765   3.7700
     4.8566   7.2304   8.3724

          k =-0.2248 0.3443 0.1383 (  1670 PWs)   bands (ev):

   -88.9150 -50.0301 -36.0284 -25.8792 -20.5067 -17.3885 -13.8616 -12.5520
   -10.1619  -8.2078  -5.1153  -2.1996   0.2886   1.2050   2.7643   3.8509
     5.0352   7.2997   8.0703

          k = 0.4503-0.1718 0.1389 (  1664 PWs)   bands (ev):

   -88.9143 -50.0347 -36.0673 -25.8149 -20.5218 -16.9712 -14.1479 -12.5756
   -10.1885  -8.0576  -5.3850  -2.3730   0.1013   0.9518   3.4731   3.9671
     6.4172   6.9746   8.4134

     the Fermi energy is     3.5636 ev

!    total energy              =    -184.42539177 Ry
     estimated scf accuracy    <          8.1E-10 Ry
     smearing contrib. (-TS)   =      -0.00684187 Ry
     internal energy E=F+TS    =    -184.41854990 Ry

     The total energy is F=E-TS. E is the sum of the following terms:
     one-electron contribution =    -323.79553835 Ry
     hartree contribution      =     166.04208018 Ry
     xc contribution           =     -39.55862990 Ry
     ewald contribution        =      51.04915084 Ry
     one-center paw contrib.   =     -38.15561267 Ry

     convergence has been achieved in  12 iterations

     Forces acting on atoms (cartesian axes, Ry/au):

     atom    1 type  1   force =     9.72550762   -3.01519078    2.58967489
     atom    2 type  1   force =    -0.08564002   -0.46687259   -2.56313107
     atom    3 type  2   force =    -4.97581889    5.63200939   -8.61720853
     atom    4 type  2   force =    -1.44270412   -2.36768520    6.20865284
     atom    5 type  2   force =    -1.46923217   -1.27037939    2.50885745
     atom    6 type  2   force =    -1.75211241    1.48811857   -0.12684558

     Total force =    17.593035     Total SCF correction =     0.000109


     Computing stress (Cartesian axis) and pressure

          total   stress  (Ry/bohr**3)                   (kbar)     P=     3400.31
   0.02477150  -0.00346366   0.00113967         3644.01     -509.52      167.65
  -0.00346366   0.01242488  -0.01181874         -509.52     1827.76    -1738.60
   0.00113967  -0.01181874   0.03214819          167.65    -1738.60     4729.16

     Energy error            =      4.7E+00 Ry
     Gradient error          =      9.7E+00 Ry/Bohr
     Cell gradient error     =      4.7E+03 kbar

     number of scf cycles    =   3
     number of bfgs steps    =   2

     enthalpy           old  =    -179.7659441063 Ry
     enthalpy           new  =    -184.4253917655 Ry

     CASE: enthalpy          _new < enthalpy          _old

     new trust radius        =       0.8000000000 bohr
     new conv_thr            =       0.0000000100 Ry

     new unit-cell volume =    589.30494 a.u.^3 (    87.32598 Ang^3 )
     density =      0.11409 g/cm^3

CELL_PARAMETERS (angstrom)
   3.505128669   0.013569426  -0.046288782
   0.017139246   4.477750519  -0.102431657
  -0.074491677  -0.123738233   5.567787877

ATOMIC_POSITIONS (angstrom)
Li               1.5808001555        0.5079438354        0.4572395541
Li              -0.1162390073       -0.0624893926       -0.2891917853
O                0.6324165402        0.8358933035        0.2077540891
O                0.6653738367        0.3832707024        0.9658301948
O               -0.4929281781       -0.2777679853        0.8348745827
O               -0.5211219206        1.3654979989        0.5787716363



     Writing config-only to output data dir ./tmp/pwscf.save/ :
     XML data file
     NEW-OLD atomic charge density approx. for the potential
     New effective cutoffs (rho, wfc):  261.93   32.81

     Check: negative core charge=   -0.000012

     total cpu time spent up to now is       47.2 secs

     Self-consistent Calculation

     iteration #  1     ecut=    40.00 Ry     beta= 0.70
     Davidson diagonalization with overlap
     c_bands:  1 eigenvalues not converged
     c_bands:  1 eigenvalues not converged
     c_bands:  1 eigenvalues not converged
     c_bands:  1 eigenvalues not converged
     c_bands:  1 eigenvalues not converged
     c_bands:  1 eigenvalues not converged
     c_bands:  1 eigenvalues not converged
     c_bands:  1 eigenvalues not converged
     c_bands:  2 eigenvalues not converged
     c_bands:  1 eigenvalues not converged
     c_bands:  1 eigenvalues not converged
     c_bands:  4 eigenvalues not converged
     c_bands:  1 eigenvalues not converged
     c_bands:  1 eigenvalues not converged
     c_bands:  2 eigenvalues not converged
     c_bands:  1 eigenvalues not converged
     c_bands:  1 eigenvalues not converged
     c_bands:  1 eigenvalues not converged
     c_bands:  1 eigenvalues not converged
     c_bands:  4 eigenvalues not converged
     ethr =  1.00E-06,  avg # of iterations = 19.0

     total cpu time spent up to now is       52.3 secs

     total energy              =    -191.37054142 Ry
     estimated scf accuracy    <       0.45598594 Ry

     iteration #  2     ecut=    40.00 Ry     beta= 0.70
     Davidson diagonalization with overlap
     ethr =  1.52E-03,  avg # of iterations =  2.3

     total cpu time spent up to now is       53.4 secs

     total energy              =    -191.27513762 Ry
     estimated scf accuracy    <       0.94572680 Ry

     iteration #  3     ecut=    40.00 Ry     beta= 0.70
     Davidson diagonalization with overlap
     ethr =  1.52E-03,  avg # of iterations =  2.0

     total cpu time spent up to now is       54.3 secs

     total energy              =    -191.48007022 Ry
     estimated scf accuracy    <       0.14368885 Ry

     iteration #  4     ecut=    40.00 Ry     beta= 0.70
     Davidson diagonalization with overlap
     ethr =  4.79E-04,  avg # of iterations =  2.0

     total cpu time spent up to now is       55.2 secs

     total energy              =    -191.49259977 Ry
     estimated scf accuracy    <       0.03129104 Ry

     iteration #  5     ecut=    40.00 Ry     beta= 0.70
     Davidson diagonalization with overlap
     ethr =  1.04E-04,  avg # of iterations =  2.0

     total cpu time spent up to now is       56.2 secs

     total energy              =    -191.49719154 Ry
     estimated scf accuracy    <       0.00761417 Ry

     iteration #  6     ecut=    40.00 Ry     beta= 0.70
     Davidson diagonalization with overlap
     ethr =  2.54E-05,  avg # of iterations =  1.4

     total cpu time spent up to now is       57.0 secs

     total energy              =    -191.49766939 Ry
     estimated scf accuracy    <       0.00126038 Ry

     iteration #  7     ecut=    40.00 Ry     beta= 0.70
     Davidson diagonalization with overlap
     ethr =  4.20E-06,  avg # of iterations =  3.4

     total cpu time spent up to now is       58.0 secs

     total energy              =    -191.49795066 Ry
     estimated scf accuracy    <       0.00003300 Ry

     iteration #  8     ecut=    40.00 Ry     beta= 0.70
     Davidson diagonalization with overlap
     ethr =  1.10E-07,  avg # of iterations =  3.3

     total cpu time spent up to now is       59.2 secs

     total energy              =    -191.49796630 Ry
     estimated scf accuracy    <       0.00000231 Ry

     iteration #  9     ecut=    40.00 Ry     beta= 0.70
     Davidson diagonalization with overlap
     ethr =  7.70E-09,  avg # of iterations =  3.1

     total cpu time spent up to now is       60.3 secs

     total energy              =    -191.49796729 Ry
     estimated scf accuracy    <       0.00000099 Ry

     iteration # 10     ecut=    40.00 Ry     beta= 0.70
     Davidson diagonalization with overlap
     ethr =  3.29E-09,  avg # of iterations =  2.1

     total cpu time spent up to now is       61.2 secs

     total energy              =    -191.49796742 Ry
     estimated scf accuracy    <       0.00000016 Ry

     iteration # 11     ecut=    40.00 Ry     beta= 0.70
     Davidson diagonalization with overlap
     ethr =  5.25E-10,  avg # of iterations =  2.6

     total cpu time spent up to now is       62.1 secs

     End of self-consistent calculation

          k = 0.0000 0.0000 0.0000 (  1687 PWs)   bands (ev):

   -52.9260 -47.0404 -38.2740 -22.6718 -21.2972 -16.1360 -11.8883 -11.0359
   -10.0705  -5.5917  -4.9722  -2.3135  -0.5676   0.4768   2.6027   3.1267
     4.6713   5.6649   8.5203

          k = 0.0017 0.0030 0.1330 (  1683 PWs)   bands (ev):

   -52.9257 -47.0403 -38.2725 -22.6707 -21.2963 -16.1395 -11.8847 -11.0343
   -10.0684  -5.5845  -4.9625  -2.3137  -0.5541   0.4992   2.5136   3.1162
     4.6665   5.8089   8.0314

          k =-0.0035-0.0061-0.2661 (  1670 PWs)   bands (ev):

   -52.9250 -47.0400 -38.2722 -22.6676 -21.2947 -16.1399 -11.8769 -11.0321
   -10.0612  -5.5825  -4.9533  -2.3075  -0.5281   0.5309   2.4220   3.1116
     4.6657   5.9532   7.7217

          k =-0.0006 0.1654 0.0037 (  1677 PWs)   bands (ev):

   -52.9253 -47.0400 -38.2721 -22.6587 -21.3217 -16.1389 -11.8746 -11.1007
    -9.9717  -5.5934  -4.8305  -2.2333  -0.6392   0.5509   2.1631   3.2013
     4.8364   5.6889   7.6385

          k = 0.0012 0.1684 0.1367 (  1669 PWs)   bands (ev):

   -52.9249 -47.0398 -38.2703 -22.6571 -21.3223 -16.1359 -11.8694 -11.0969
    -9.9718  -5.5877  -4.8252  -2.2239  -0.6307   0.5853   2.1861   3.0195
     4.8913   6.0096   7.3823

          k =-0.0041 0.1593-0.2624 (  1680 PWs)   bands (ev):

   -52.9257 -47.0404 -38.2729 -22.6599 -21.3224 -16.1438 -11.8725 -11.1002
    -9.9746  -5.5888  -4.8223  -2.2398  -0.6223   0.5838   2.1754   3.0288
     4.8350   5.8228   7.3497

          k = 0.0012-0.3308-0.0073 (  1648 PWs)   bands (ev):

   -52.9241 -47.0388 -38.2657 -22.6432 -21.3450 -16.1340 -11.8564 -11.1486
    -9.8808  -5.5906  -4.6613  -2.1287  -0.7070   0.7208   1.5272   3.4208
     5.0634   5.8328   6.6122

          k = 0.0029-0.3278 0.1257 (  1650 PWs)   bands (ev):

   -52.9236 -47.0393 -38.2663 -22.6447 -21.3442 -16.1346 -11.8525 -11.1468
    -9.8872  -5.5939  -4.6547  -2.1325  -0.6999   0.7270   1.5588   3.3793
     5.0607   5.8022   6.4221

          k =-0.0023-0.3369-0.2734 (  1656 PWs)   bands (ev):

   -52.9245 -47.0395 -38.2668 -22.6449 -21.3402 -16.1407 -11.8487 -11.1442
    -9.8912  -5.6001  -4.6483  -2.1429  -0.7117   0.7367   1.5919   3.3333
     5.0618   5.8522   6.1595

          k = 0.2112-0.0007 0.0028 (  1649 PWs)   bands (ev):

   -52.8981 -47.0810 -38.3297 -22.1566 -21.2027 -16.1050 -12.1118 -11.3309
   -10.7650  -5.5938  -4.8295  -1.9782  -0.6073   0.5879   2.6774   3.6238
     5.2646   6.4206   8.4708

          k = 0.2130 0.0023 0.1359 (  1670 PWs)   bands (ev):

   -52.8995 -47.0817 -38.3341 -22.1607 -21.2070 -16.1117 -12.1193 -11.3416
   -10.7696  -5.6051  -4.8374  -1.9843  -0.6069   0.6029   2.6207   3.6619
     5.2266   6.4017   8.1836

          k = 0.2077-0.0068-0.2633 (  1668 PWs)   bands (ev):

   -52.8992 -47.0811 -38.3333 -22.1598 -21.2044 -16.1136 -12.1169 -11.3398
   -10.7643  -5.6000  -4.8342  -1.9740  -0.6007   0.5880   2.6282   3.6193
     5.1754   6.4388   8.1327

          k = 0.2106 0.1647 0.0065 (  1668 PWs)   bands (ev):

   -52.8994 -47.0814 -38.3331 -22.1519 -21.2270 -16.1128 -12.1406 -11.3473
   -10.7345  -5.5709  -4.6809  -1.9163  -0.6690   0.6421   2.2396   3.8174
     5.1598   6.3362   8.0122

          k = 0.2124 0.1677 0.1395 (  1660 PWs)   bands (ev):

   -52.8993 -47.0811 -38.3314 -22.1482 -21.2247 -16.1130 -12.1348 -11.3402
   -10.7316  -5.5693  -4.6789  -1.9050  -0.6651   0.6646   2.2546   3.7334
     5.2430   6.4436   7.9603

          k = 0.2072 0.1586-0.2596 (  1672 PWs)   bands (ev):

   -52.9002 -47.0819 -38.3345 -22.1529 -21.2283 -16.1158 -12.1418 -11.3454
   -10.7385  -5.5735  -4.6837  -1.9054  -0.6614   0.6470   2.2356   3.7438
     5.1827   6.2968   7.9314

          k = 0.2124-0.3316-0.0045 (  1664 PWs)   bands (ev):

   -52.8990 -47.0810 -38.3340 -22.1388 -21.2513 -16.1104 -12.1930 -11.3683
   -10.6435  -5.5061  -4.5350  -1.8250  -0.7502   0.7787   1.5680   4.1312
     5.3019   6.4441   7.1565

          k = 0.2142-0.3285 0.1285 (  1670 PWs)   bands (ev):

   -52.8994 -47.0814 -38.3358 -22.1398 -21.2516 -16.1123 -12.1933 -11.3695
   -10.6442  -5.5155  -4.5352  -1.8291  -0.7610   0.7892   1.5852   4.1256
     5.3147   6.5300   6.9159

          k = 0.2089-0.3376-0.2706 (  1668 PWs)   bands (ev):

   -52.8998 -47.0815 -38.3341 -22.1376 -21.2517 -16.1166 -12.1925 -11.3622
   -10.6442  -5.5155  -4.5334  -1.8155  -0.7601   0.7864   1.6036   4.1096
     5.3443   6.4165   6.7871

          k =-0.4225 0.0015-0.0056 (  1648 PWs)   bands (ev):

   -52.8721 -47.1231 -38.3909 -21.5983 -21.1053 -16.0670 -12.5362 -11.7176
   -11.1869  -5.6204  -4.8689  -1.7068  -0.4356   0.6616   2.6966   4.7247
     5.8689   6.7456   7.1350

          k =-0.4207 0.0045 0.1274 (  1656 PWs)   bands (ev):

   -52.8724 -47.1233 -38.3926 -21.5985 -21.1068 -16.0779 -12.5367 -11.7150
   -11.1860  -5.6218  -4.8724  -1.7017  -0.4337   0.6529   2.6873   4.8594
     5.8494   6.4805   7.1640

          k =-0.4260-0.0046-0.2717 (  1668 PWs)   bands (ev):

   -52.8739 -47.1237 -38.3968 -21.6034 -21.1084 -16.0809 -12.5391 -11.7190
   -11.1952  -5.6260  -4.8798  -1.6963  -0.4340   0.6454   2.6726   5.0389
     5.8078   6.1874   7.1612

          k =-0.4231 0.1669-0.0020 (  1672 PWs)   bands (ev):

   -52.8734 -47.1237 -38.3945 -21.5927 -21.1267 -16.0805 -12.5945 -11.6756
   -11.1922  -5.5673  -4.7061  -1.6388  -0.5206   0.7387   2.1480   4.8827
     6.1844   6.6637   7.1007

          k =-0.4213 0.1699 0.1311 (  1664 PWs)   bands (ev):

   -52.8733 -47.1233 -38.3937 -21.5911 -21.1247 -16.0767 -12.5950 -11.6743
   -11.1881  -5.5686  -4.7052  -1.6202  -0.5182   0.7465   2.1613   5.0397
     6.1470   6.3827   7.1153

          k =-0.4266 0.1608-0.2680 (  1656 PWs)   bands (ev):

   -52.8729 -47.1228 -38.3939 -21.5898 -21.1228 -16.0737 -12.5909 -11.6707
   -11.1820  -5.5648  -4.7051  -1.6080  -0.5109   0.7514   2.1679   5.1035
     6.1361   6.3616   7.0566

          k =-0.4213-0.3293-0.0130 (  1660 PWs)   bands (ev):

   -52.8724 -47.1227 -38.3930 -21.5803 -21.1392 -16.0727 -12.6401 -11.6320
   -11.1800  -5.5204  -4.4987  -1.5443  -0.5823   0.8563   1.5945   5.1510
     6.1637   6.7842   7.3913

          k =-0.4195-0.3263 0.1201 (  1680 PWs)   bands (ev):

   -52.8742 -47.1238 -38.3971 -21.5866 -21.1438 -16.0839 -12.6477 -11.6423
   -11.1934  -5.5252  -4.5031  -1.5467  -0.5985   0.8509   1.5912   5.1689
     6.1845   6.7499   7.3180

          k =-0.4248-0.3354-0.2791 (  1664 PWs)   bands (ev):

   -52.8734 -47.1237 -38.3946 -21.5840 -21.1440 -16.0799 -12.6476 -11.6377
   -11.1865  -5.5225  -4.4935  -1.5292  -0.5871   0.8610   1.6075   5.1997
     6.2381   6.7196   7.2508

          k = 0.0023-0.1624 0.1294 (  1669 PWs)   bands (ev):

   -52.9252 -47.0399 -38.2713 -22.6582 -21.3192 -16.1355 -11.8694 -11.0972
    -9.9708  -5.5851  -4.8242  -2.2384  -0.6138   0.5534   2.1580   3.2221
     4.7684   5.5687   7.5652

          k =-0.2095 0.0038 0.1302 (  1670 PWs)   bands (ev):

   -52.8996 -47.0817 -38.3344 -22.1608 -21.2077 -16.1119 -12.1212 -11.3395
   -10.7712  -5.6020  -4.8374  -1.9752  -0.6005   0.5677   2.6602   3.5761
     5.1881   6.4448   8.4050

          k =-0.2118 0.1662 0.0009 (  1668 PWs)   bands (ev):

   -52.8993 -47.0811 -38.3338 -22.1477 -21.2304 -16.1100 -12.1709 -11.3688
   -10.6705  -5.5237  -4.7236  -1.9144  -0.7024   0.6490   2.0890   3.8661
     5.3766   6.4446   7.9812

          k =-0.2089-0.1616 0.1266 (  1660 PWs)   bands (ev):

   -52.8991 -47.0813 -38.3333 -22.1521 -21.2271 -16.1088 -12.1401 -11.3465
   -10.7347  -5.5675  -4.6765  -1.9069  -0.6544   0.6348   2.2370   3.8382
     5.0990   6.2289   7.9894

          k =-0.2136 0.1631-0.1322 (  1660 PWs)   bands (ev):

   -52.8989 -47.0813 -38.3332 -22.1477 -21.2301 -16.1085 -12.1711 -11.3660
   -10.6670  -5.5231  -4.7164  -1.9182  -0.6940   0.6738   2.0871   3.9377
     5.3315   6.2654   7.9722

          k = 0.2101-0.1692-0.1339 (  1660 PWs)   bands (ev):

   -52.8986 -47.0810 -38.3319 -22.1443 -21.2277 -16.1128 -12.1667 -11.3590
   -10.6686  -5.5253  -4.7225  -1.8959  -0.6951   0.6589   2.1132   3.7837
     5.3640   6.5427   7.8943

          k =-0.2083 0.1722 0.2670 (  1672 PWs)   bands (ev):

   -52.8996 -47.0818 -38.3352 -22.1487 -21.2317 -16.1157 -12.1726 -11.3655
   -10.6727  -5.5316  -4.7279  -1.9073  -0.6951   0.6736   2.1012   3.8418
     5.3114   6.3360   7.9244

          k =-0.2107 0.3346 0.1376 (  1670 PWs)   bands (ev):

   -52.8997 -47.0812 -38.3358 -22.1409 -21.2512 -16.1121 -12.1940 -11.3679
   -10.6475  -5.5134  -4.5400  -1.8173  -0.7577   0.7730   1.5859   4.1148
     5.3126   6.3347   7.0108

          k = 0.4248-0.1639 0.1350 (  1664 PWs)   bands (ev):

   -52.8732 -47.1235 -38.3947 -21.5924 -21.1234 -16.0781 -12.5931 -11.6758
   -11.1883  -5.5635  -4.7016  -1.6232  -0.5173   0.7446   2.1508   4.9295
     6.1805   6.6600   7.0302

     the Fermi energy is     2.8857 ev

!    total energy              =    -191.49796745 Ry
     estimated scf accuracy    <          5.6E-09 Ry
     smearing contrib. (-TS)   =      -0.00228119 Ry
     internal energy E=F+TS    =    -191.49568627 Ry

     The total energy is F=E-TS. E is the sum of the following terms:
     one-electron contribution =    -295.67343044 Ry
     hartree contribution      =     154.68203179 Ry
     xc contribution           =     -38.81325545 Ry
     ewald contribution        =      26.39256460 Ry
     one-center paw contrib.   =     -38.08359676 Ry

     convergence has been achieved in  11 iterations

     Forces acting on atoms (cartesian axes, Ry/au):

     atom    1 type  1   force =     3.05051177   -0.34861590   -0.35843714
     atom    2 type  1   force =    -0.11077402   -0.30599678   -1.06510226
     atom    3 type  2   force =    -1.26159483    2.88766914   -3.23534145
     atom    4 type  2   force =    -0.79707021   -2.23365837    3.97944698
     atom    5 type  2   force =    -0.47319252   -0.89227549    0.92699884
     atom    6 type  2   force =    -0.40788019    0.89287741   -0.24756497

     Total force =     7.453757     Total SCF correction =     0.000154


     Computing stress (Cartesian axis) and pressure

          total   stress  (Ry/bohr**3)                   (kbar)     P=     1446.96
   0.01156320  -0.00074296  -0.00067070         1701.01     -109.29      -98.66
  -0.00074296   0.00741867  -0.00579389         -109.29     1091.32     -852.31
  -0.00067070  -0.00579389   0.01052680          -98.66     -852.31     1548.55

     Energy error            =      7.1E+00 Ry
     Gradient error          =      4.0E+00 Ry/Bohr
     Cell gradient error     =      1.7E+03 kbar

     number of scf cycles    =   4
     number of bfgs steps    =   3

     enthalpy           old  =    -184.4253917655 Ry
     enthalpy           new  =    -191.4979674527 Ry

     CASE: enthalpy          _new < enthalpy          _old

     new trust radius        =       0.8000000000 bohr
     new conv_thr            =       0.0000000100 Ry

     new unit-cell volume =    638.02093 a.u.^3 (    94.54495 Ang^3 )
     density =      0.10538 g/cm^3

CELL_PARAMETERS (angstrom)
   3.720876057   0.015278179  -0.094179546
   0.019906440   4.659613419  -0.222350288
  -0.153117660  -0.270376545   5.469911411

ATOMIC_POSITIONS (angstrom)
Li               1.9508282854        0.6602003795        0.1034149891
Li              -0.1606379104       -0.0194747201       -0.2104825067
O                0.6269676389        1.0507002530        0.3889085205
O                0.5020785678        0.0759633712        1.0880337784
O               -0.5449184873       -0.4469060376        0.8241999622
O               -0.5551374924        1.4719286110        0.4117480974



     Writing config-only to output data dir ./tmp/pwscf.save/ :
     XML data file
     NEW-OLD atomic charge density approx. for the potential
     New effective cutoffs (rho, wfc):  273.77   34.26

     Check: negative core charge=   -0.000015

     negative rho (up, down):  9.498E-04 0.000E+00

     total cpu time spent up to now is       63.1 secs

     Self-consistent Calculation

     iteration #  1     ecut=    40.00 Ry     beta= 0.70
     Davidson diagonalization with overlap
     c_bands:  2 eigenvalues not converged
     c_bands:  1 eigenvalues not converged
     c_bands:  1 eigenvalues not converged
     c_bands:  2 eigenvalues not converged
     c_bands:  2 eigenvalues not converged
     c_bands:  2 eigenvalues not converged
     c_bands:  1 eigenvalues not converged
     c_bands:  2 eigenvalues not converged
     c_bands:  2 eigenvalues not converged
     c_bands:  2 eigenvalues not converged
     c_bands:  3 eigenvalues not converged
     c_bands:  3 eigenvalues not converged
     c_bands:  2 eigenvalues not converged
     c_bands:  2 eigenvalues not converged
     c_bands:  2 eigenvalues not converged
     c_bands:  2 eigenvalues not converged
     c_bands:  2 eigenvalues not converged
     c_bands:  2 eigenvalues not converged
     c_bands:  1 eigenvalues not converged
     c_bands:  1 eigenvalues not converged
     c_bands:  1 eigenvalues not converged
     c_bands:  1 eigenvalues not converged
     c_bands:  2 eigenvalues not converged
     c_bands:  1 eigenvalues not converged
     c_bands:  2 eigenvalues not converged
     c_bands:  2 eigenvalues not converged
     c_bands:  2 eigenvalues not converged
     c_bands:  1 eigenvalues not converged
     c_bands:  1 eigenvalues not converged
     c_bands:  2 eigenvalues not converged
     c_bands:  2 eigenvalues not converged
     c_bands:  2 eigenvalues not converged
     c_bands:  2 eigenvalues not converged
     c_bands:  2 eigenvalues not converged
     c_bands:  2 eigenvalues not converged
     c_bands:  1 eigenvalues not converged
     ethr =  1.00E-06,  avg # of iterations = 20.0

     total cpu time spent up to now is       68.4 secs

     total energy              =    -193.72373438 Ry
     estimated scf accuracy    <       0.34106361 Ry

     iteration #  2     ecut=    40.00 Ry     beta= 0.70
     Davidson diagonalization with overlap
     ethr =  1.14E-03,  avg # of iterations =  2.0

     total cpu time spent up to now is       69.5 secs

     total energy              =    -193.76532813 Ry
     estimated scf accuracy    <       0.07366965 Ry

     iteration #  3     ecut=    40.00 Ry     beta= 0.70
     Davidson diagonalization with overlap
     ethr =  2.46E-04,  avg # of iterations =  2.0

     total cpu time spent up to now is       70.5 secs

     total energy              =    -193.78399228 Ry
     estimated scf accuracy    <       0.02231433 Ry

     iteration #  4     ecut=    40.00 Ry     beta= 0.70
     Davidson diagonalization with overlap
     ethr =  7.44E-05,  avg # of iterations =  3.1

     total cpu time spent up to now is       71.5 secs

     total energy              =    -193.78868926 Ry
     estimated scf accuracy    <       0.00051712 Ry

     iteration #  5     ecut=    40.00 Ry     beta= 0.70
     Davidson diagonalization with overlap
     ethr =  1.72E-06,  avg # of iterations = 10.0

     total cpu time spent up to now is       73.1 secs

     total energy              =    -193.78892341 Ry
     estimated scf accuracy    <       0.00015394 Ry

     iteration #  6     ecut=    40.00 Ry     beta= 0.70
     Davidson diagonalization with overlap
     ethr =  5.13E-07,  avg # of iterations =  2.0

     total cpu time spent up to now is       74.1 secs

     total energy              =    -193.78896438 Ry
     estimated scf accuracy    <       0.00001156 Ry

     iteration #  7     ecut=    40.00 Ry     beta= 0.70
     Davidson diagonalization with overlap
     ethr =  3.85E-08,  avg # of iterations =  2.2

     total cpu time spent up to now is       75.1 secs

     total energy              =    -193.78896744 Ry
     estimated scf accuracy    <       0.00000080 Ry

     iteration #  8     ecut=    40.00 Ry     beta= 0.70
     Davidson diagonalization with overlap
     ethr =  2.67E-09,  avg # of iterations =  4.0

     total cpu time spent up to now is       76.3 secs

     total energy              =    -193.78896773 Ry
     estimated scf accuracy    <       0.00000021 Ry

     iteration #  9     ecut=    40.00 Ry     beta= 0.70
     Davidson diagonalization with overlap
     ethr =  7.00E-10,  avg # of iterations =  2.0

     total cpu time spent up to now is       77.3 secs

     End of self-consistent calculation

          k = 0.0000 0.0000 0.0000 (  1687 PWs)   bands (ev):

   -47.0419 -44.5329 -31.2366 -24.4195 -19.9434 -12.0912 -10.1323  -9.7147
    -9.0097  -5.9055  -5.5060  -1.7722  -1.3331   0.0964   1.2507   2.8297
     7.0710   7.4014   8.9548

          k = 0.0034 0.0065 0.1358 (  1683 PWs)   bands (ev):

   -47.0411 -44.5320 -31.2345 -24.4189 -19.9421 -12.0909 -10.1293  -9.7034
    -9.0008  -5.8954  -5.4931  -1.7799  -1.3566   0.1100   1.2732   2.8123
     6.7460   7.7186   8.8445

          k =-0.0068-0.0129-0.2715 (  1670 PWs)   bands (ev):

   -47.0402 -44.5312 -31.2331 -24.4137 -19.9371 -12.0847 -10.1174  -9.6997
    -8.9987  -5.8715  -5.4645  -1.7693  -1.3761   0.1259   1.3358   2.7956
     6.5731   7.8940   8.6845

          k =-0.0005 0.1592 0.0079 (  1677 PWs)   bands (ev):

   -47.0407 -44.5316 -31.2317 -24.4389 -19.9095 -12.1136 -10.1544  -9.6114
    -8.9098  -6.0174  -5.5020  -1.6210  -1.2726  -0.2394   1.2626   3.1384
     6.1853   7.6902   8.4369

          k = 0.0030 0.1657 0.1436 (  1669 PWs)   bands (ev):

   -47.0402 -44.5312 -31.2324 -24.4387 -19.9096 -12.1170 -10.1558  -9.6085
    -8.9043  -6.0135  -5.4833  -1.6139  -1.2825  -0.2282   1.3016   3.0852
     6.2806   7.2832   8.5353

          k =-0.0073 0.1463-0.2636 (  1680 PWs)   bands (ev):

   -47.0407 -44.5318 -31.2319 -24.4392 -19.9122 -12.1205 -10.1580  -9.6175
    -8.9167  -6.0028  -5.4708  -1.6128  -1.3113  -0.2427   1.2980   3.0543
     6.4527   7.0193   8.5419

          k = 0.0009-0.3185-0.0157 (  1648 PWs)   bands (ev):

   -47.0385 -44.5287 -31.2253 -24.4558 -19.8678 -12.1368 -10.1591  -9.5227
    -8.7652  -6.1381  -5.4744  -1.4170  -1.1138  -0.6657   1.2664   3.6665
     5.1689   8.1739   8.4736

          k = 0.0043-0.3120 0.1200 (  1650 PWs)   bands (ev):

   -47.0392 -44.5292 -31.2269 -24.4562 -19.8724 -12.1411 -10.1606  -9.5302
    -8.7914  -6.1266  -5.4608  -1.4131  -1.1111  -0.6647   1.2758   3.5592
     5.3035   7.9184   8.3975

          k =-0.0059-0.3314-0.2872 (  1656 PWs)   bands (ev):

   -47.0392 -44.5293 -31.2282 -24.4579 -19.8733 -12.1441 -10.1567  -9.5314
    -8.8025  -6.1305  -5.4563  -1.4188  -1.1258  -0.6519   1.2703   3.4523
     5.4594   7.5985   8.4135

          k = 0.1991-0.0006 0.0055 (  1649 PWs)   bands (ev):

   -47.0207 -44.5499 -31.2679 -24.4051 -19.8016 -12.1297 -10.2640  -9.5733
    -9.1128  -5.8919  -5.0818  -1.9747  -1.2721   0.2593   1.3418   3.3478
     7.2174   7.6459   8.3078

          k = 0.2025 0.0059 0.1413 (  1670 PWs)   bands (ev):

   -47.0217 -44.5512 -31.2705 -24.4071 -19.8095 -12.1364 -10.2761  -9.5894
    -9.1270  -5.8949  -5.0832  -2.0047  -1.3133   0.2431   1.3725   3.3467
[...]
     ewald contribution        =    -101.98026768 Ry
     one-center paw contrib.   =     -38.14067940 Ry

     convergence has been achieved in   9 iterations

     Forces acting on atoms (cartesian axes, Ry/au):

     atom    1 type  1   force =     0.00360935   -0.00097506    0.00282998
     atom    2 type  1   force =     0.00149137    0.00713345    0.00185771
     atom    3 type  2   force =    -0.01631199   -0.00193235   -0.00026936
     atom    4 type  2   force =    -0.01399163   -0.00468058   -0.01332223
     atom    5 type  2   force =     0.01586227    0.00457486    0.00237081
     atom    6 type  2   force =     0.00934064   -0.00412034    0.00653309

     Total force =     0.034186     Total SCF correction =     0.000114


     Computing stress (Cartesian axis) and pressure

          total   stress  (Ry/bohr**3)                   (kbar)     P=       -2.89
  -0.00012467  -0.00002748   0.00001132          -18.34       -4.04        1.66
  -0.00002748   0.00012390  -0.00005292           -4.04       18.23       -7.78
   0.00001132  -0.00005292  -0.00005819            1.66       -7.78       -8.56

     Energy error            =      9.7E-04 Ry
     Gradient error          =      1.6E-02 Ry/Bohr
     Cell gradient error     =      1.8E+01 kbar

     number of scf cycles    =  49
     number of bfgs steps    =  48

     enthalpy           old  =    -195.3467196093 Ry
     enthalpy           new  =    -195.3476900302 Ry

     CASE: enthalpy          _new < enthalpy          _old

     new trust radius        =       0.0272739959 bohr
     new conv_thr            =       0.0000000010 Ry

     new unit-cell volume =    343.92903 a.u.^3 (    50.96502 Ang^3 )
     density =      0.19549 g/cm^3

CELL_PARAMETERS (angstrom)
   2.921030128  -0.062303688  -0.357232990
   0.025063335   4.552933402  -0.060416550
  -0.826126732   0.040604823   3.932464531

ATOMIC_POSITIONS (angstrom)
Li               1.3254810019        0.8488624240        0.6619716230
Li               0.8077568939       -1.5021655974       -1.1009962899
O                0.0012667526        2.0559280967        1.1325901989
O               -0.0828753471       -0.2872223279        1.2482869527
O               -0.5137967743       -0.3179728178       -0.0220511456
O               -0.4642400869        2.0475574851       -0.1306986499



     Writing config-only to output data dir ./tmp/pwscf.save/ :
     XML data file
     NEW-OLD atomic charge density approx. for the potential
     New effective cutoffs (rho, wfc):  597.67   75.55

     Check: negative core charge=   -0.000006

     total cpu time spent up to now is      635.7 secs

     Self-consistent Calculation

     iteration #  1     ecut=    40.00 Ry     beta= 0.70
     Davidson diagonalization with overlap
     ethr =  1.00E-06,  avg # of iterations =  5.3

     total cpu time spent up to now is      637.6 secs

     total energy              =    -195.34773914 Ry
     estimated scf accuracy    <       0.00066112 Ry

     iteration #  2     ecut=    40.00 Ry     beta= 0.70
     Davidson diagonalization with overlap
     ethr =  2.20E-06,  avg # of iterations =  4.9

     total cpu time spent up to now is      638.8 secs

     total energy              =    -195.34649398 Ry
     estimated scf accuracy    <       0.01824964 Ry

     iteration #  3     ecut=    40.00 Ry     beta= 0.70
     Davidson diagonalization with overlap
     ethr =  2.20E-06,  avg # of iterations =  2.9

     total cpu time spent up to now is      639.9 secs

     total energy              =    -195.34806531 Ry
     estimated scf accuracy    <       0.00013434 Ry

     iteration #  4     ecut=    40.00 Ry     beta= 0.70
     Davidson diagonalization with overlap
     ethr =  4.48E-07,  avg # of iterations =  2.0

     total cpu time spent up to now is      640.9 secs

     total energy              =    -195.34808394 Ry
     estimated scf accuracy    <       0.00014297 Ry

     iteration #  5     ecut=    40.00 Ry     beta= 0.70
     Davidson diagonalization with overlap
     ethr =  4.48E-07,  avg # of iterations =  1.1

     total cpu time spent up to now is      641.7 secs

     total energy              =    -195.34810351 Ry
     estimated scf accuracy    <       0.00001285 Ry

     iteration #  6     ecut=    40.00 Ry     beta= 0.70
     Davidson diagonalization with overlap
     ethr =  4.28E-08,  avg # of iterations =  2.0

     total cpu time spent up to now is      642.6 secs

     total energy              =    -195.34810622 Ry
     estimated scf accuracy    <       0.00000026 Ry

     iteration #  7     ecut=    40.00 Ry     beta= 0.70
     Davidson diagonalization with overlap
     ethr =  8.61E-10,  avg # of iterations =  3.9

     total cpu time spent up to now is      643.8 secs

     total energy              =    -195.34810635 Ry
     estimated scf accuracy    <       0.00000005 Ry

     iteration #  8     ecut=    40.00 Ry     beta= 0.70
     Davidson diagonalization with overlap
     ethr =  1.75E-10,  avg # of iterations =  1.8

     total cpu time spent up to now is      644.7 secs

     total energy              =    -195.34810635 Ry
     estimated scf accuracy    <          4.5E-09 Ry

     iteration #  9     ecut=    40.00 Ry     beta= 0.70
     Davidson diagonalization with overlap
     ethr =  1.50E-11,  avg # of iterations =  2.1

     total cpu time spent up to now is      645.7 secs

     End of self-consistent calculation

          k = 0.0000 0.0000 0.0000 (  1687 PWs)   bands (ev):

   -39.4871 -39.3549 -19.7955 -18.5985 -10.6575  -9.1212  -3.7254  -3.4307
    -2.3926  -0.7581   0.3723   1.7966   2.0813   3.7135   4.7125   6.4249
    11.7506  12.3115  12.4506

          k = 0.0237 0.0024 0.1932 (  1683 PWs)   bands (ev):

   -39.4859 -39.3552 -19.7650 -18.5625 -10.9701  -9.4297  -3.5849  -2.7883
    -1.7662  -0.8764   0.2879   1.7087   1.9545   3.9535   4.8637   6.3495
     9.8678  11.2342  12.9506

          k =-0.0474-0.0049-0.3864 (  1670 PWs)   bands (ev):

   -39.4847 -39.3555 -19.7336 -18.5255 -11.2506  -9.7076  -3.4933  -2.0352
    -1.1304  -0.9900   0.2079   1.4991   1.9517   4.1956   5.0119   6.2766
     8.5404  10.2895  12.8693

          k = 0.0033 0.1626-0.0010 (  1677 PWs)   bands (ev):

   -39.4863 -39.3553 -19.6575 -18.7813 -10.4822  -9.3762  -3.5156  -3.1432
    -2.2683  -0.6006   0.1828   0.9843   2.6531   3.8395   4.5731   5.7649
    11.8208  12.2344  12.7121

          k = 0.0270 0.1650 0.1922 (  1669 PWs)   bands (ev):

   -39.4855 -39.3554 -19.6267 -18.7456 -10.7937  -9.6879  -3.1434  -2.6185
    -1.7627  -0.7182   0.0934   1.0213   2.4329   4.0697   4.7360   5.6620
    10.0108  11.0058  13.1601

          k =-0.0440 0.1577-0.3874 (  1680 PWs)   bands (ev):

   -39.4846 -39.3555 -19.5973 -18.7065 -11.0660  -9.9798  -2.9777  -1.9211
    -1.1689  -0.8272  -0.0021   1.0817   2.2132   4.2880   4.8919   5.5312
     8.7480   9.9631  13.1099

          k =-0.0067-0.3251 0.0020 (  1648 PWs)   bands (ev):

   -39.4855 -39.3557 -19.4113 -19.0712 -10.1457  -9.7895  -3.2809  -3.1203
    -1.1514  -0.6533  -0.2052  -0.1809   3.8648   4.0530   4.3584   4.5126
    11.9382  12.1136  13.2736

          k = 0.0170-0.3227 0.1951 (  1650 PWs)   bands (ev):

   -39.4849 -39.3555 -19.3864 -19.0290 -10.4083 -10.1570  -2.7892  -2.3936
    -1.0153  -0.5750  -0.3003  -0.2709   3.7938   4.1283   4.3443   4.5573
    10.3468  10.5733  13.3730

          k =-0.0541-0.3300-0.3844 (  1656 PWs)   bands (ev):

   -39.4843 -39.3552 -19.3611 -18.9856 -10.6467 -10.4828  -2.3511  -1.6540
    -0.8005  -0.5362  -0.3911  -0.2900   3.7139   3.9550   4.4719   4.7323
     9.1363   9.4707  13.3309

          k = 0.2601-0.0007 0.0546 (  1649 PWs)   bands (ev):

   -39.4795 -39.3435 -19.7211 -18.4722 -10.7496  -9.2027  -3.6152  -3.0151
    -1.9688  -1.5447  -0.4701   1.8569   2.0741   3.0870   4.2260   6.4124
    10.3267  11.5501  13.8253

          k = 0.2838 0.0017 0.2478 (  1670 PWs)   bands (ev):

   -39.4785 -39.3438 -19.6893 -18.4350 -11.0498  -9.4969  -3.5218  -2.2196
    -1.7561  -1.2509  -0.6595   1.6915   2.0224   3.3510   4.3855   6.3326
     8.9325  10.5962  14.0735

          k = 0.2127-0.0056-0.3317 (  1668 PWs)   bands (ev):

   -39.4783 -39.3437 -19.6951 -18.4358 -10.9796  -9.4439  -3.5623  -2.4860
    -1.8724  -1.4888  -0.7493   1.7470   2.0360   3.6753   4.6690   6.3554
     9.6565  11.1202  14.0026

          k = 0.2634 0.1619 0.0537 (  1668 PWs)   bands (ev):

   -39.4791 -39.3438 -19.5676 -18.6752 -10.5772  -9.4540  -3.2009  -2.8140
    -1.9377  -1.4504  -0.6004   1.0394   2.5670   3.2645   4.0362   5.7587
    10.4544  11.3606  14.1082

          k = 0.2871 0.1643 0.2469 (  1660 PWs)   bands (ev):

   -39.4783 -39.3438 -19.5357 -18.6378 -10.8707  -9.7604  -2.9619  -2.0911
    -1.6624  -1.2809  -0.7957   1.0901   2.3458   3.5083   4.2201   5.6397
     9.1452  10.2991  14.3799

          k = 0.2161 0.1570-0.3327 (  1672 PWs)   bands (ev):

   -39.4781 -39.3437 -19.5421 -18.6380 -10.7966  -9.7126  -3.0496  -2.3365
    -1.7630  -1.5125  -0.8979   1.0872   2.4298   3.8081   4.5087   5.6457
     9.8640  10.8179  14.3341

          k = 0.2534-0.3258 0.0566 (  1664 PWs)   bands (ev):

   -39.4786 -39.3440 -19.2828 -19.0061 -10.2338  -9.8763  -2.9380  -2.6103
    -1.3312  -1.0204  -0.8143  -0.4953   3.5433   3.5997   3.9095   4.4753
    10.7799  10.9632  14.6081

          k = 0.2771-0.3234 0.2498 (  1670 PWs)   bands (ev):

   -39.4780 -39.3437 -19.2561 -18.9633 -10.4885 -10.2256  -2.4039  -1.8172
    -1.4851  -1.0634  -0.7240  -0.4516   3.6432   3.7791   3.8917   4.2967
     9.5851   9.7788  14.8143

          k = 0.2060-0.3307-0.3298 (  1668 PWs)   bands (ev):

   -39.4779 -39.3437 -19.2612 -18.9655 -10.4183 -10.1699  -2.6127  -2.0603
    -1.5618  -1.2131  -0.8100  -0.4727   3.7607   4.0271   4.1325   4.3958
    10.2499  10.3675  14.7203

          k =-0.5202 0.0014-0.1093 (  1648 PWs)   bands (ev):

   -39.4720 -39.3321 -19.6442 -18.3407 -10.8441  -9.2852  -3.5011  -2.5041
    -2.2670  -1.3928  -1.3254   1.8532   2.0919   2.5005   3.7206   6.4011
     9.2371  10.8320  14.6941

          k =-0.4965 0.0038 0.0839 (  1656 PWs)   bands (ev):

   -39.4719 -39.3320 -19.6502 -18.3418 -10.7620  -9.2212  -3.5424  -2.8986
    -2.2624  -1.8195  -1.2360   1.9050   2.1275   2.7359   3.9634   6.4149
    10.1536  11.4345  14.7981

          k =-0.5676-0.0035-0.4957 (  1668 PWs)   bands (ev):

   -39.4718 -39.3319 -19.6563 -18.3429 -10.6772  -9.1562  -3.5959  -2.9477
    -2.6353  -1.8358  -1.5942   1.9310   2.1649   3.1525   4.3072   6.4263
    10.9986  11.9613  14.3761

          k =-0.5168 0.1640-0.1103 (  1672 PWs)   bands (ev):

   -39.4719 -39.3322 -19.4830 -18.5537 -10.6668  -9.5423  -2.9706  -2.3915
    -2.1861  -1.4307  -1.4023   1.1490   2.4423   2.7425   3.5100   5.7203
     9.4263  10.5499  14.9731

          k =-0.4932 0.1664 0.0829 (  1664 PWs)   bands (ev):

   -39.4717 -39.3320 -19.4882 -18.5558 -10.5847  -9.4776  -3.1009  -2.6653
    -2.2386  -1.8562  -1.2821   1.1428   2.5677   2.9314   3.7602   5.7453
    10.3282  11.1889  15.0073

          k =-0.5642 0.1591-0.4967 (  1656 PWs)   bands (ev):

   -39.4715 -39.3319 -19.4940 -18.5573 -10.5022  -9.4087  -3.2070  -2.7294
    -2.5400  -1.8425  -1.6749   1.1307   2.6746   3.3102   4.1276   5.7728
    11.1221  11.8121  14.5511

          k =-0.5269-0.3237-0.1073 (  1660 PWs)   bands (ev):

   -39.4717 -39.3322 -19.1495 -18.9382 -10.3309  -9.9553  -2.4918  -2.2439
    -1.9730  -1.5235  -0.6917  -0.5683   2.9638   3.0877   3.8248   4.4515
     9.8119  10.0770  15.3717

          k =-0.5032-0.3213 0.0859 (  1680 PWs)   bands (ev):

   -39.4715 -39.3321 -19.1544 -18.9408 -10.2490  -9.8890  -2.7998  -2.3795
    -2.2421  -1.5328  -0.7486  -0.5825   3.2433   3.3256   3.8943   4.4878
    10.5956  10.8695  15.1820

          k =-0.5743-0.3286-0.4937 (  1664 PWs)   bands (ev):

   -39.4713 -39.3320 -19.1593 -18.9434 -10.1647  -9.8207  -2.9573  -2.5050
    -2.4196  -1.8326  -0.8248  -0.6142   3.6013   3.6859   4.0073   4.5235
    11.3543  11.5546  14.7528

          k = 0.0203-0.1601 0.1942 (  1669 PWs)   bands (ev):

   -39.4855 -39.3554 -19.6288 -18.7430 -10.7839  -9.7030  -3.1384  -2.6204
    -1.7675  -0.7159   0.0922   1.0393   2.4456   4.0594   4.7374   5.6379
    10.0433  10.9481  13.1758

          k =-0.2364 0.0031 0.1385 (  1670 PWs)   bands (ev):

   -39.4793 -39.3435 -19.7269 -18.4730 -10.6694  -9.1415  -3.7037  -3.2224
    -2.2037  -1.6469  -0.5567   1.8688   2.1212   3.3708   4.4790   6.4252
    11.3787  12.1474  13.8606

          k =-0.2567 0.1633-0.0556 (  1668 PWs)   bands (ev):

   -39.4791 -39.3437 -19.5746 -18.6662 -10.5687  -9.4653  -3.2371  -2.7870
    -1.9712  -1.4315  -0.6138   1.0880   2.6249   3.2322   4.0200   5.7434
    10.4945  11.3068  14.1100

          k =-0.2398-0.1594 0.1395 (  1660 PWs)   bands (ev):

   -39.4789 -39.3437 -19.5738 -18.6752 -10.4925  -9.3986  -3.3946  -2.9617
    -2.1314  -1.5345  -0.6910   1.0378   2.6586   3.5251   4.3057   5.7694
    11.4817  12.0239  14.0607

          k =-0.2804 0.1608-0.2488 (  1660 PWs)   bands (ev):

   -39.4783 -39.3438 -19.5433 -18.6281 -10.8646  -9.7683  -3.0031  -2.1002
    -1.6206  -1.2856  -0.8175   1.1371   2.3960   3.4851   4.2016   5.6225
     9.1453  10.3049  14.3885

          k = 0.2331-0.1657-0.1376 (  1660 PWs)   bands (ev):

   -39.4789 -39.3437 -19.5788 -18.6688 -10.4955  -9.3923  -3.4180  -2.9482
    -2.1593  -1.5252  -0.6963   1.0713   2.6744   3.5167   4.2911   5.7815
    11.4769  12.0359  14.0676

          k =-0.2094 0.1681 0.3308 (  1672 PWs)   bands (ev):

   -39.4781 -39.3437 -19.5477 -18.6309 -10.8006  -9.7053  -3.0881  -2.3263
    -1.7498  -1.5176  -0.9091   1.1144   2.4522   3.7955   4.4952   5.6598
     9.8221  10.8824  14.3265

          k =-0.2297 0.3283 0.1366 (  1670 PWs)   bands (ev):

   -39.4784 -39.3439 -19.2877 -19.0083 -10.1554  -9.8099  -3.1553  -2.8664
    -1.4235  -1.0992  -0.8736  -0.5200   3.7252   3.8877   4.0460   4.5138
    11.6641  11.8255  14.3249

          k = 0.5405-0.1615 0.3035 (  1664 PWs)   bands (ev):

   -39.4717 -39.3320 -19.4887 -18.5552 -10.5868  -9.4749  -3.0688  -2.7561
    -2.2060  -1.7943  -1.3180   1.1376   2.6137   2.9006   3.7490   5.7439
    10.2848  11.2502  14.9612

     the Fermi energy is     4.6364 ev

!    total energy              =    -195.34810635 Ry
     estimated scf accuracy    <          8.9E-11 Ry
     smearing contrib. (-TS)   =      -0.00540338 Ry
     internal energy E=F+TS    =    -195.34270297 Ry

     The total energy is F=E-TS. E is the sum of the following terms:
     one-electron contribution =     -63.79553397 Ry
     hartree contribution      =      45.10448762 Ry
     xc contribution           =     -36.45330554 Ry
     ewald contribution        =    -102.05781363 Ry
     one-center paw contrib.   =     -38.14053744 Ry

     convergence has been achieved in   9 iterations

     Forces acting on atoms (cartesian axes, Ry/au):

     atom    1 type  1   force =     0.00429976   -0.00148633    0.00280552
     atom    2 type  1   force =     0.00092365    0.00715184    0.00222902
     atom    3 type  2   force =    -0.01620857   -0.00177916   -0.00046859
     atom    4 type  2   force =    -0.01441415   -0.00245223   -0.01072418
     atom    5 type  2   force =     0.01468263    0.00251480   -0.00149766
     atom    6 type  2   force =     0.01071668   -0.00394892    0.00765589

     Total force =     0.033070     Total SCF correction =     0.000011


     Computing stress (Cartesian axis) and pressure

          total   stress  (Ry/bohr**3)                   (kbar)     P=       -4.12
  -0.00010621  -0.00001304   0.00000718          -15.62       -1.92        1.06
  -0.00001304   0.00004238  -0.00004943           -1.92        6.23       -7.27
   0.00000718  -0.00004943  -0.00002025            1.06       -7.27       -2.98

     Energy error            =      4.2E-04 Ry
     Gradient error          =      1.6E-02 Ry/Bohr
     Cell gradient error     =      1.6E+01 kbar

     number of scf cycles    =  50
     number of bfgs steps    =  49

     enthalpy           old  =    -195.3476900302 Ry
     enthalpy           new  =    -195.3481063520 Ry

     CASE: enthalpy          _new < enthalpy          _old

     new trust radius        =       0.0249289871 bohr

     The maximum number of steps has been reached.

     End of BFGS Geometry Optimization
     new unit-cell volume =    344.95686 a.u.^3 (    51.11733 Ang^3 )
     density =      0.19491 g/cm^3

CELL_PARAMETERS (angstrom)
   2.912107092  -0.067428870  -0.345135740
   0.022139669   4.573968659  -0.055437601
  -0.808470323   0.043504653   3.932771918

ATOMIC_POSITIONS (angstrom)
Li               1.3204100207        0.8546597875        0.6696599662
Li               0.8027413569       -1.5006812120       -1.1076043141
O               -0.0019487523        2.0607485388        1.1376556104
O               -0.0767106824       -0.3011623947        1.2477123881
O               -0.4998603398       -0.3155902537       -0.0221046350
O               -0.4683775863        2.0590915363       -0.1268082550



     Writing config-only to output data dir ./tmp/pwscf.save/ :
     XML data file
     NEW-OLD atomic charge density approx. for the potential
     New effective cutoffs (rho, wfc):  593.84   75.03

     Check: negative core charge=   -0.000006

     Writing all to output data dir ./tmp/pwscf.save/ :
     XML data file, charge density, pseudopotentials, collected wavefunctions

     init_run     :      0.73s CPU      0.76s WALL (       1 calls)
     electrons    :    581.28s CPU    598.86s WALL (      50 calls)
     update_pot   :      4.96s CPU      5.04s WALL (      50 calls)
     forces       :      7.91s CPU      8.00s WALL (      50 calls)
     stress       :     26.04s CPU     26.21s WALL (      50 calls)

     Called by init_run:
     wfcinit      :      0.37s CPU      0.38s WALL (       1 calls)
     potinit      :      0.15s CPU      0.15s WALL (       1 calls)
     hinit0       :      0.19s CPU      0.20s WALL (       1 calls)

     Called by electrons:
     c_bands      :    467.35s CPU    482.54s WALL (     484 calls)
     sum_band     :     57.64s CPU     58.99s WALL (     484 calls)
     v_of_rho     :      5.08s CPU      5.27s WALL (     535 calls)
     newd         :      9.83s CPU      9.91s WALL (     535 calls)
     PAW_pot      :     50.04s CPU     50.21s WALL (     585 calls)
     mix_rho      :      0.65s CPU      0.68s WALL (     484 calls)

     Called by c_bands:
     init_us_2    :      5.78s CPU      6.37s WALL (   40284 calls)
     cegterg      :    457.08s CPU    467.78s WALL (   17424 calls)

     Called by *egterg:
     cdiaghg      :     43.30s CPU     43.89s WALL (   77772 calls)
     h_psi        :    270.26s CPU    278.97s WALL (   79572 calls)
     s_psi        :     30.49s CPU     30.86s WALL (   79572 calls)
     g_psi        :      1.49s CPU      1.51s WALL (   62112 calls)

     Called by h_psi:
     h_psi:calbec :     34.25s CPU     35.20s WALL (   79572 calls)
     vloc_psi     :    203.37s CPU    210.63s WALL (   79572 calls)
                                        0.00s GPU  (   79572 calls)
     add_vuspsi   :     31.32s CPU     31.75s WALL (   79572 calls)

     General routines
     calbec       :     66.85s CPU     68.17s WALL (  129396 calls)
     fft          :      3.65s CPU      3.87s WALL (    8155 calls)
     ffts         :      0.20s CPU      0.21s WALL (    1019 calls)
     fftw         :    217.16s CPU    224.66s WALL ( 2417520 calls)
     interpolate  :      0.40s CPU      0.42s WALL (     535 calls)
     davcio       :      0.00s CPU      0.01s WALL (      36 calls)

     Parallel routines

     PWSCF        :  10m28.41s CPU  10m46.75s WALL


   This run was terminated on:  19:34:25  29Dec2024            

=------------------------------------------------------------------------------=
   JOB DONE.
=------------------------------------------------------------------------------=
