 vasp.6.3.0 20Jan22 (build Jul  1 2024 12:21:46) complex                         
 executed on             LinuxGNU date 2024.10.21  13:13:07
 running    1 mpi-ranks, with    1 threads/rank
 distrk:  each k-point on    1 cores,    1 groups
 distr:  one band on NCORE=   1 cores,    1 groups


--------------------------------------------------------------------------------------------------------


 INCAR:
   SYSTEM = Alumina_orthorombic_cell_under_strain
   ISTART = 0
   ICHARG = 2
   ENCUT = 400
   ALGO = Normal
   PREC = Normal
   ISPIN = 1
   LWAVE = T             (Write WAVECAR)
   LCHARG = T             (Write CHGCAR)
   NPAR = 1
   EDIFF = 1E-6
   NSW = 0
   NELM = 100
   POTIM = 0.5
   IBRION = -1
   ISMEAR = 1
   SIGMA = 0.026
   EDIFFG = -0.001
   ISIF = 2
   LREAL = Auto

 POTCAR:    PAW_PBE Al 04Jan2001                  
 POTCAR:    PAW_PBE O 08Apr2002                   
 POTCAR:    PAW_PBE Al 04Jan2001                  
   SHA256 =  17880443556af62b473fe41b62a467bd001ad55d2cabe504a3f22e34d4e9db96 Al/POTCAR             
   COPYR  = (c) Copyright 04Jan2001 Georg Kresse                                                    
   COPYR  = This file is part of the software VASP. Any use, copying, and all other rights are regul
   COPYR  = If you do not have a valid VASP license, you may not use, copy or distribute this file. 
   VRHFIN =Al: s2p1                                                                                 
   LEXCH  = PE                                                                                      
   EATOM  =    53.5387 eV,    3.9350 Ry                                                             
                                                                                                    
   TITEL  = PAW_PBE Al 04Jan2001                                                                    
   LULTRA =        F    use ultrasoft PP ?                                                          
   IUNSCR =        1    unscreen: 0-lin 1-nonlin 2-no                                               
   RPACOR =    1.500    partial core radius                                                         
   POMASS =   26.981; ZVAL   =    3.000    mass and valenz                                          
   RCORE  =    1.900    outmost cutoff radius                                                       
   RWIGS  =    2.650; RWIGS  =    1.402    wigner-seitz radius (au A)                               
   ENMAX  =  240.300; ENMIN  =  180.225 eV                                                          
   ICORE  =        2    local potential                                                             
   LCOR   =        T    correct aug charges                                                         
   LPAW   =        T    paw PP                                                                      
   EAUG   =  291.052                                                                                
   DEXC   =    0.000                                                                                
   RMAX   =    1.939    core radius for proj-oper                                                   
   RAUG   =    1.300    factor for augmentation sphere                                              
   RDEP   =    1.966    radius for radial grids                                                     
   RDEPT  =    1.856    core radius for aug-charge                                                  
                                                                                                    
   Atomic configuration                                                                             
    6 entries                                                                                       
     n  l   j            E        occ.                                                              
     1  0  0.50     -1511.1048   2.0000                                                             
     2  0  0.50      -108.1629   2.0000                                                             
     2  1  1.50       -69.6402   6.0000                                                             
     3  0  0.50        -7.7528   2.0000                                                             
     3  1  1.50        -2.7121   1.0000                                                             
     3  2  2.50        -2.7212   0.0000                                                             
   Description                                                                                      
     l       E           TYP  RCUT    TYP  RCUT                                                     
     0     -7.7528455     23  1.900                                                                 
     0     -3.3096929     23  1.900                                                                 
     1     -2.7120682     23  1.900                                                                 
     1     13.6058260     23  1.900                                                                 
     2     -2.7211652      7  1.900                                                                 
  local pseudopotential read in
  partial core-charges read in
  partial kinetic energy density read in
  atomic valenz-charges read in
  non local Contribution for L=           0  read in
    real space projection operators read in
  non local Contribution for L=           0  read in
    real space projection operators read in
  non local Contribution for L=           1  read in
    real space projection operators read in
  non local Contribution for L=           1  read in
    real space projection operators read in
    PAW grid and wavefunctions read in

   number of l-projection  operators is LMAX  =           4
   number of lm-projection operators is LMMAX =           8

 POTCAR:    PAW_PBE O 08Apr2002                   
   SHA256 =  818f92134a0a090dccd8ba1447fa70422a3b330e708bb4f08108d8ae51209ddf O/POTCAR              
   COPYR  = (c) Copyright 08Apr2002 Georg Kresse                                                    
   COPYR  = This file is part of the software VASP. Any use, copying, and all other rights are regul
   COPYR  = If you do not have a valid VASP license, you may not use, copy or distribute this file. 
   VRHFIN =O: s2p4                                                                                  
   LEXCH  = PE                                                                                      
   EATOM  =   432.3788 eV,   31.7789 Ry                                                             
                                                                                                    
   TITEL  = PAW_PBE O 08Apr2002                                                                     
   LULTRA =        F    use ultrasoft PP ?                                                          
   IUNSCR =        1    unscreen: 0-lin 1-nonlin 2-no                                               
   RPACOR =    1.200    partial core radius                                                         
   POMASS =   16.000; ZVAL   =    6.000    mass and valenz                                          
   RCORE  =    1.520    outmost cutoff radius                                                       
   RWIGS  =    1.550; RWIGS  =    0.820    wigner-seitz radius (au A)                               
   ENMAX  =  400.000; ENMIN  =  300.000 eV                                                          
   ICORE  =        2    local potential                                                             
   LCOR   =        T    correct aug charges                                                         
   LPAW   =        T    paw PP                                                                      
   EAUG   =  605.392                                                                                
   DEXC   =    0.000                                                                                
   RMAX   =    1.553    core radius for proj-oper                                                   
   RAUG   =    1.300    factor for augmentation sphere                                              
   RDEP   =    1.550    radius for radial grids                                                     
   RDEPT  =    1.329    core radius for aug-charge                                                  
                                                                                                    
   Atomic configuration                                                                             
    4 entries                                                                                       
     n  l   j            E        occ.                                                              
     1  0  0.50      -514.6923   2.0000                                                             
     2  0  0.50       -23.9615   2.0000                                                             
     2  1  0.50        -9.0305   4.0000                                                             
     3  2  1.50        -9.5241   0.0000                                                             
   Description                                                                                      
     l       E           TYP  RCUT    TYP  RCUT                                                     
     0    -23.9615318     23  1.200                                                                 
     0     -9.5240782     23  1.200                                                                 
     1     -9.0304911     23  1.520                                                                 
     1      8.1634956     23  1.520                                                                 
     2     -9.5240782      7  1.500                                                                 
  local pseudopotential read in
  partial core-charges read in
  partial kinetic energy density read in
  kinetic energy density of atom read in
  atomic valenz-charges read in
  non local Contribution for L=           0  read in
    real space projection operators read in
  non local Contribution for L=           0  read in
    real space projection operators read in
  non local Contribution for L=           1  read in
    real space projection operators read in
  non local Contribution for L=           1  read in
    real space projection operators read in
    PAW grid and wavefunctions read in

   number of l-projection  operators is LMAX  =           4
   number of lm-projection operators is LMMAX =           8

 Optimization of the real space projectors (new method)

 maximal supplied QI-value         = 19.84
 optimisation between [QCUT,QGAM] = [ 10.12, 20.44] = [ 28.68,116.96] Ry 
 Optimized for a Real-space Cutoff    1.23 Angstroem

   l    n(q)    QCUT    max X(q) W(low)/X(q) W(high)/X(q)  e(spline) 
   0      7    10.119   176.870    0.49E-04    0.18E-03    0.39E-07
   0      7    10.119   105.762    0.46E-04    0.18E-03    0.38E-07
   1      7    10.119    55.370    0.30E-03    0.37E-03    0.12E-06
   1      7    10.119    20.208    0.27E-03    0.35E-03    0.11E-06
 Optimization of the real space projectors (new method)

 maximal supplied QI-value         = 24.76
 optimisation between [QCUT,QGAM] = [ 10.15, 20.30] = [ 28.85,115.39] Ry 
 Optimized for a Real-space Cutoff    1.38 Angstroem

   l    n(q)    QCUT    max X(q) W(low)/X(q) W(high)/X(q)  e(spline) 
   0      8    10.150    20.381    0.22E-03    0.32E-03    0.29E-06
   0      8    10.150    15.268    0.23E-03    0.35E-03    0.30E-06
   1      8    10.150     5.964    0.46E-03    0.53E-03    0.21E-06
   1      8    10.150     5.382    0.38E-03    0.45E-03    0.19E-06
  PAW_PBE Al 04Jan2001                  :
 energy of atom  1       EATOM=  -53.5387
 kinetic energy error for atom=    0.0005 (will be added to EATOM!!)
  PAW_PBE O 08Apr2002                   :
 energy of atom  2       EATOM= -432.3788
 kinetic energy error for atom=    0.1156 (will be added to EATOM!!)


 POSCAR:    Al  O
  positions in direct lattice
  No initial velocities read in
 exchange correlation table for  LEXCH =        8
   RHO(1)=    0.500       N(1)  =     2000
   RHO(2)=  100.500       N(2)  =     4000



--------------------------------------------------------------------------------------------------------


 ion  position               nearest neighbor table
   1  0.126  0.016  0.390-  70 1.96  52 1.99  46 2.02  77 2.07  37 2.08  33 2.13   5 2.82  18 3.03
                            20 3.06  31 3.29  29 3.29  10 3.35   9 3.35
   2  0.126  0.516  0.390-  69 1.96  51 1.99  45 2.02  78 2.07  38 2.08  34 2.13   6 2.82  17 3.03
                            19 3.06  32 3.29  30 3.29   9 3.35  10 3.35
   3  0.626  0.016  0.390-  72 1.96  50 1.99  48 2.02  79 2.07  39 2.08  35 2.13   7 2.82  20 3.03
                            18 3.06  29 3.29  31 3.29  12 3.35  11 3.35
   4  0.626  0.516  0.390-  71 1.96  49 1.99  47 2.02  80 2.07  40 2.08  36 2.13   8 2.82  19 3.03
                            17 3.06  30 3.29  32 3.29  11 3.35  12 3.35
   5  0.126  0.234  0.610-  69 1.96  55 1.99  41 2.02  77 2.07  33 2.08  37 2.13   1 2.82  21 3.03
                            23 3.06  27 3.29  25 3.29  13 3.35  14 3.35
   6  0.126  0.734  0.610-  70 1.96  56 1.99  42 2.02  78 2.07  34 2.08  38 2.13   2 2.82  22 3.03
                            24 3.06  28 3.29  26 3.29  14 3.35  13 3.35
   7  0.626  0.234  0.610-  71 1.96  53 1.99  43 2.02  79 2.07  35 2.08  39 2.13   3 2.82  23 3.03
                            21 3.06  25 3.29  27 3.29  15 3.35  16 3.35
   8  0.626  0.734  0.610-  72 1.96  54 1.99  44 2.02  80 2.07  36 2.08  40 2.13   4 2.82  24 3.03
                            22 3.06  26 3.29  28 3.29  16 3.35  15 3.35
   9  0.124  0.266  0.110-  65 1.96  57 1.99  37 2.02  75 2.07  45 2.08  41 2.13  13 2.82  27 3.03
                            25 3.06  21 3.29  23 3.29   2 3.35   1 3.35
  10  0.124  0.766  0.110-  66 1.96  58 1.99  38 2.02  76 2.07  46 2.08  42 2.13  14 2.82  28 3.03
                            26 3.06  22 3.29  24 3.29   1 3.35   2 3.35
  11  0.624  0.266  0.110-  67 1.96  59 1.99  39 2.02  73 2.07  47 2.08  43 2.13  15 2.82  25 3.03
                            27 3.06  23 3.29  21 3.29   4 3.35   3 3.35
  12  0.624  0.766  0.110-  68 1.96  60 1.99  40 2.02  74 2.07  48 2.08  44 2.13  16 2.82  26 3.03
                            28 3.06  24 3.29  22 3.29   3 3.35   4 3.35
  13  0.124  0.484  0.890-  66 1.96  62 1.99  34 2.02  75 2.07  41 2.08  45 2.13   9 2.82  32 3.03
                            30 3.06  17 3.29  19 3.29   5 3.35   6 3.35
  14  0.124  0.984  0.890-  65 1.96  61 1.99  33 2.02  76 2.07  42 2.08  46 2.13  10 2.82  31 3.03
                            29 3.06  18 3.29  20 3.29   6 3.35   5 3.35
  15  0.624  0.484  0.890-  68 1.96  64 1.99  36 2.02  73 2.07  43 2.08  47 2.13  11 2.82  30 3.03
                            32 3.06  19 3.29  17 3.29   7 3.35   8 3.35
  16  0.624  0.984  0.890-  67 1.96  63 1.99  35 2.02  74 2.07  44 2.08  48 2.13  12 2.82  29 3.03
                            31 3.06  20 3.29  18 3.29   8 3.35   7 3.35
  17  0.374  0.484  0.610-  78 1.96  36 1.99  62 2.02  69 2.07  53 2.08  49 2.13  21 2.82   2 3.03
                             4 3.06  13 3.29  15 3.29  25 3.35  26 3.35
  18  0.374  0.984  0.610-  77 1.96  35 1.99  61 2.02  70 2.07  54 2.08  50 2.13  22 2.82   1 3.03
                             3 3.06  14 3.29  16 3.29  26 3.35  25 3.35
  19  0.874  0.484  0.610-  80 1.96  34 1.99  64 2.02  71 2.07  55 2.08  51 2.13  23 2.82   4 3.03
                             2 3.06  15 3.29  13 3.29  27 3.35  28 3.35
  20  0.874  0.984  0.610-  79 1.96  33 1.99  63 2.02  72 2.07  56 2.08  52 2.13  24 2.82   3 3.03
                             1 3.06  16 3.29  14 3.29  28 3.35  27 3.35
  21  0.374  0.266  0.390-  77 1.96  39 1.99  57 2.02  69 2.07  49 2.08  53 2.13  17 2.82   5 3.03
                             7 3.06   9 3.29  11 3.29  30 3.35  29 3.35
  22  0.374  0.766  0.390-  78 1.96  40 1.99  58 2.02  70 2.07  50 2.08  54 2.13  18 2.82   6 3.03
                             8 3.06  10 3.29  12 3.29  29 3.35  30 3.35
  23  0.874  0.266  0.390-  79 1.96  37 1.99  59 2.02  71 2.07  51 2.08  55 2.13  19 2.82   7 3.03
                             5 3.06  11 3.29   9 3.29  32 3.35  31 3.35
  24  0.874  0.766  0.390-  80 1.96  38 1.99  60 2.02  72 2.07  52 2.08  56 2.13  20 2.82   8 3.03
                             6 3.06  12 3.29  10 3.29  31 3.35  32 3.35
  25  0.376  0.234  0.890-  73 1.96  41 1.99  53 2.02  67 2.07  61 2.08  57 2.13  29 2.82  11 3.03
                             9 3.06   7 3.29   5 3.29  17 3.35  18 3.35
  26  0.376  0.734  0.890-  74 1.96  42 1.99  54 2.02  68 2.07  62 2.08  58 2.13  30 2.82  12 3.03
                            10 3.06   8 3.29   6 3.29  18 3.35  17 3.35
  27  0.876  0.234  0.890-  75 1.96  43 1.99  55 2.02  65 2.07  63 2.08  59 2.13  31 2.82   9 3.03
                            11 3.06   5 3.29   7 3.29  19 3.35  20 3.35
  28  0.876  0.734  0.890-  76 1.96  44 1.99  56 2.02  66 2.07  64 2.08  60 2.13  32 2.82  10 3.03
                            12 3.06   6 3.29   8 3.29  20 3.35  19 3.35
  29  0.376  0.016  0.110-  74 1.96  46 1.99  50 2.02  67 2.07  57 2.08  61 2.13  25 2.82  16 3.03
                            14 3.06   3 3.29   1 3.29  22 3.35  21 3.35
  30  0.376  0.516  0.110-  73 1.96  45 1.99  49 2.02  68 2.07  58 2.08  62 2.13  26 2.82  15 3.03
                            13 3.06   4 3.29   2 3.29  22 3.35  21 3.35
  31  0.876  0.016  0.110-  76 1.96  48 1.99  52 2.02  65 2.07  59 2.08  63 2.13  27 2.82  14 3.03
                            16 3.06   1 3.29   3 3.29  24 3.35  23 3.35
  32  0.876  0.516  0.110-  75 1.96  47 1.99  51 2.02  66 2.07  60 2.08  64 2.13  28 2.82  13 3.03
                            15 3.06   2 3.29   4 3.29  24 3.35  23 3.35
  33  0.054  0.051  0.654-  20 1.99  14 2.02   5 2.08   1 2.13
  34  0.054  0.551  0.654-  19 1.99  13 2.02   6 2.08   2 2.13
  35  0.554  0.051  0.654-  18 1.99  16 2.02   7 2.08   3 2.13
  36  0.554  0.551  0.654-  17 1.99  15 2.02   8 2.08   4 2.13
  37  0.054  0.199  0.346-  23 1.99   9 2.02   1 2.08   5 2.13
  38  0.054  0.699  0.346-  24 1.99  10 2.02   2 2.08   6 2.13
  39  0.554  0.199  0.346-  21 1.99  11 2.02   3 2.08   7 2.13
  40  0.554  0.699  0.346-  22 1.99  12 2.02   4 2.08   8 2.13
  41  0.196  0.301  0.846-  25 1.99   5 2.02  13 2.08   9 2.13
  42  0.196  0.801  0.846-  26 1.99   6 2.02  14 2.08  10 2.13
  43  0.696  0.301  0.846-  27 1.99   7 2.02  15 2.08  11 2.13
  44  0.696  0.801  0.846-  28 1.99   8 2.02  16 2.08  12 2.13
  45  0.196  0.449  0.154-  30 1.99   2 2.02   9 2.08  13 2.13
  46  0.196  0.949  0.154-  29 1.99   1 2.02  10 2.08  14 2.13
  47  0.696  0.449  0.154-  32 1.99   4 2.02  11 2.08  15 2.13
  48  0.696  0.949  0.154-  31 1.99   3 2.02  12 2.08  16 2.13
  49  0.446  0.449  0.346-   4 1.99  30 2.02  21 2.08  17 2.13
  50  0.446  0.949  0.346-   3 1.99  29 2.02  22 2.08  18 2.13
  51  0.946  0.449  0.346-   2 1.99  32 2.02  23 2.08  19 2.13
  52  0.946  0.949  0.346-   1 1.99  31 2.02  24 2.08  20 2.13
  53  0.446  0.301  0.654-   7 1.99  25 2.02  17 2.08  21 2.13
  54  0.446  0.801  0.654-   8 1.99  26 2.02  18 2.08  22 2.13
  55  0.946  0.301  0.654-   5 1.99  27 2.02  19 2.08  23 2.13
  56  0.946  0.801  0.654-   6 1.99  28 2.02  20 2.08  24 2.13
  57  0.304  0.199  0.154-   9 1.99  21 2.02  29 2.08  25 2.13
  58  0.304  0.699  0.154-  10 1.99  22 2.02  30 2.08  26 2.13
  59  0.804  0.199  0.154-  11 1.99  23 2.02  31 2.08  27 2.13
  60  0.804  0.699  0.154-  12 1.99  24 2.02  32 2.08  28 2.13
  61  0.304  0.051  0.846-  14 1.99  18 2.02  25 2.08  29 2.13
  62  0.304  0.551  0.846-  13 1.99  17 2.02  26 2.08  30 2.13
  63  0.804  0.051  0.846-  16 1.99  20 2.02  27 2.08  31 2.13
  64  0.804  0.551  0.846-  15 1.99  19 2.02  28 2.08  32 2.13
  65  0.025  0.125  0.000-  14 1.96   9 1.96  27 2.07  31 2.07
  66  0.025  0.625  0.000-  13 1.96  10 1.96  28 2.07  32 2.07
  67  0.525  0.125  0.000-  16 1.96  11 1.96  25 2.07  29 2.07
  68  0.525  0.625  0.000-  15 1.96  12 1.96  26 2.07  30 2.07
  69  0.225  0.375  0.500-   5 1.96   2 1.96  17 2.07  21 2.07
  70  0.225  0.875  0.500-   6 1.96   1 1.96  18 2.07  22 2.07
  71  0.725  0.375  0.500-   7 1.96   4 1.96  19 2.07  23 2.07
  72  0.725  0.875  0.500-   8 1.96   3 1.96  20 2.07  24 2.07
  73  0.475  0.375  0.000-  25 1.96  30 1.96  15 2.07  11 2.07
  74  0.475  0.875  0.000-  29 1.96  26 1.96  16 2.07  12 2.07
  75  0.975  0.375  0.000-  27 1.96  32 1.96  13 2.07   9 2.07
  76  0.975  0.875  0.000-  31 1.96  28 1.96  14 2.07  10 2.07
  77  0.275  0.125  0.500-  18 1.96  21 1.96   5 2.07   1 2.07
  78  0.275  0.625  0.500-  17 1.96  22 1.96   6 2.07   2 2.07
  79  0.775  0.125  0.500-  20 1.96  23 1.96   7 2.07   3 2.07
  80  0.775  0.625  0.500-  19 1.96  24 1.96   8 2.07   4 2.07

  LATTYP: Found a simple orthorhombic cell.
 ALAT       =     7.4443581342
 B/A-ratio  =     1.3681458986
 C/A-ratio  =     1.4070268484
  
  Lattice vectors:
  
 A1 = (   0.0000000000,   0.0000000000,   7.4443581342)
 A2 = (  10.1849680488,   0.0000000000,   0.0000000000)
 A3 = (   0.0000000000,  10.4744117641,   0.0000000000)


Analysis of symmetry for initial positions (statically):
=====================================================================
 Subroutine PRICEL returns following result:
 
  LATTYP: Found a simple orthorhombic cell.
 ALAT       =     5.0924840247
 B/A-ratio  =     1.0284187391
 C/A-ratio  =     1.4618323981
  
  Lattice vectors:
  
 A1 = (   5.0924840247,   0.0000000000,   0.0000000000)
 A2 = (   0.0000000000,   5.2372059994,   0.0000000000)
 A3 = (   0.0000000000,   0.0000000000,   7.4443581342)
 
   4 primitive cells build up your supercell.
 

 Routine SETGRP: Setting up the symmetry group for a 
 simple orthorhombic supercell.


 Subroutine GETGRP returns: Found  8 space group operations
 (whereof  2 operations were pure point group operations)
 out of a pool of  8 trial point group operations.


The static configuration has the point symmetry S_2 .
 The point group associated with its full space group is D_2h.


Analysis of symmetry for dynamics (positions and initial velocities):
=====================================================================
 Subroutine PRICEL returns following result:
 
  LATTYP: Found a simple orthorhombic cell.
 ALAT       =     5.0924840247
 B/A-ratio  =     1.0284187391
 C/A-ratio  =     1.4618323981
  
  Lattice vectors:
  
 A1 = (   5.0924840247,   0.0000000000,   0.0000000000)
 A2 = (   0.0000000000,   5.2372059994,   0.0000000000)
 A3 = (   0.0000000000,   0.0000000000,   7.4443581342)
 
   4 primitive cells build up your supercell.
 

 Routine SETGRP: Setting up the symmetry group for a 
 simple orthorhombic supercell.


 Subroutine GETGRP returns: Found  8 space group operations
 (whereof  2 operations were pure point group operations)
 out of a pool of  8 trial point group operations.


The dynamic configuration has the point symmetry S_2 .
 The point group associated with its full space group is D_2h.


Analysis of constrained symmetry for selective dynamics:
=====================================================================
 Subroutine PRICEL returns following result:
 
  LATTYP: Found a simple orthorhombic cell.
 ALAT       =     5.0924840247
 B/A-ratio  =     1.0284187391
 C/A-ratio  =     1.4618323981
  
  Lattice vectors:
  
 A1 = (   5.0924840247,   0.0000000000,   0.0000000000)
 A2 = (   0.0000000000,   5.2372059994,   0.0000000000)
 A3 = (   0.0000000000,   0.0000000000,   7.4443581342)
 
   4 primitive cells build up your supercell.
 

 Routine SETGRP: Setting up the symmetry group for a 
 simple orthorhombic supercell.


 Subroutine GETGRP returns: Found  8 space group operations
 (whereof  2 operations were pure point group operations)
 out of a pool of  8 trial point group operations.


The constrained configuration has the point symmetry S_2 .
 The point group associated with its full space group is D_2h.


 Subroutine INISYM returns: Found  8 space group operations
 (whereof  2 operations are pure point group operations),
 and found     4 'primitive' translations


----------------------------------------------------------------------------------------

                                     Primitive cell                                     

  volume of cell :     198.5439

  direct lattice vectors                    reciprocal lattice vectors
     5.092484025  0.000000000  0.000000000     0.196367823  0.000000000  0.000000000
     0.000000000  5.237205999  0.000000000     0.000000000  0.190941506  0.000000000
     0.000000000  0.000000000  7.444358134     0.000000000  0.000000000  0.134329916

  length of vectors
     5.092484025  5.237205999  7.444358134     0.196367823  0.190941506  0.134329916

  position of ions in fractional coordinates (direct lattice)
     0.252301010  0.031394432  0.389988368
     0.252301010  0.468605564  0.610011602
     0.247698990  0.531394421  0.110011610
     0.247698990  0.968605501  0.889988398
     0.747698961  0.968605501  0.610011602
     0.747698961  0.531394421  0.389988368
     0.752301039  0.468605564  0.889988398
     0.752301039  0.031394432  0.110011610
     0.107072531  0.102390997  0.654148561
     0.107072531  0.397608992  0.345851469
     0.392927454  0.602391023  0.845851439
     0.392927454  0.897608899  0.154148517
     0.892927514  0.897608899  0.345851469
     0.892927514  0.602391023  0.654148561
     0.607072486  0.397608992  0.154148517
     0.607072486  0.102390997  0.845851439
     0.050188047  0.249999994  0.000000000
     0.449811960  0.749999961  0.500000000
     0.949811900  0.749999961  0.000000000
     0.550188099  0.249999994  0.500000000

  ion indices of the primitive-cell ions
   primitive index   ion index
                 1           1
                 2           5
                 3          10
                 4          14
                 5          18
                 6          22
                 7          27
                 8          31
                 9          33
                10          37
                11          42
                12          46
                13          52
                14          56
                15          57
                16          61
                17          65
                18          70
                19          76
                20          77

----------------------------------------------------------------------------------------



 KPOINTS: k-points                                

Automatic generation of k-mesh.
 Grid dimensions read from file:
 generate k-points for:    4    4    4

 Generating k-lattice:

  Cartesian coordinates                     Fractional coordinates (reciprocal lattice)
     0.024545978  0.000000000  0.000000000     0.250000000  0.000000000  0.000000000
     0.000000000  0.023867689  0.000000000     0.000000000  0.250000000  0.000000000
     0.000000000  0.000000000  0.033582479     0.000000000  0.000000000  0.250000000

  Length of vectors
     0.024545978  0.023867689  0.033582479

  Shift w.r.t. Gamma in fractional coordinates (k-lattice)
     0.500000000  0.500000000  0.500000000

 
 Subroutine IBZKPT returns following result:
 ===========================================
 
 Found      8 irreducible k-points:
 
 Following reciprocal coordinates:
            Coordinates               Weight
  0.125000  0.125000  0.125000      8.000000
  0.375000  0.125000  0.125000      8.000000
  0.125000  0.375000  0.125000      8.000000
  0.375000  0.375000  0.125000      8.000000
  0.125000  0.125000  0.375000      8.000000
  0.375000  0.125000  0.375000      8.000000
  0.125000  0.375000  0.375000      8.000000
  0.375000  0.375000  0.375000      8.000000
 
 Following cartesian coordinates:
            Coordinates               Weight
  0.012273  0.011934  0.016791      8.000000
  0.036819  0.011934  0.016791      8.000000
  0.012273  0.035802  0.016791      8.000000
  0.036819  0.035802  0.016791      8.000000
  0.012273  0.011934  0.050374      8.000000
  0.036819  0.011934  0.050374      8.000000
  0.012273  0.035802  0.050374      8.000000
  0.036819  0.035802  0.050374      8.000000
 


--------------------------------------------------------------------------------------------------------




 Dimension of arrays:
   k-points           NKPTS =      8   k-points in BZ     NKDIM =      8   number of bands    NBANDS=    233
   number of dos      NEDOS =    301   number of ions     NIONS =     80
   non local maximal  LDIM  =      4   non local SUM 2l+1 LMDIM =      8
   total plane-waves  NPLWV =  97200
   max r-space proj   IRMAX =   1398   max aug-charges    IRDMAX=   4962
   dimension x,y,z NGX =    50 NGY =   54 NGZ =   36
   dimension x,y,z NGXF=   100 NGYF=  108 NGZF=   72
   support grid    NGXF=   100 NGYF=  108 NGZF=   72
   ions per type =              32  48
   NGX,Y,Z   is equivalent  to a cutoff of   8.16,  8.57,  8.04 a.u.
   NGXF,Y,Z  is equivalent  to a cutoff of  16.32, 17.14, 16.08 a.u.

 SYSTEM =  Alumina_orthorombic_cell_under_strain   
 POSCAR =     Al  O                                

 Startparameter for this run:
   NWRITE =      2    write-flag & timer
   PREC   = normal    normal or accurate (medium, high low for compatibility)
   ISTART =      0    job   : 0-new  1-cont  2-samecut
   ICHARG =      2    charge: 1-file 2-atom 10-const
   ISPIN  =      1    spin polarized calculation?
   LNONCOLLINEAR =      F non collinear calculations
   LSORBIT =      F    spin-orbit coupling
   INIWAV =      1    electr: 0-lowe 1-rand  2-diag
   LASPH  =      F    aspherical Exc in radial PAW
 Electronic Relaxation 1
   ENCUT  =  400.0 eV  29.40 Ry    5.42 a.u.  16.61 17.08 12.14*2*pi/ulx,y,z
   ENINI  =  400.0     initial cutoff
   ENAUG  =  605.4 eV  augmentation charge cutoff
   NELM   =    100;   NELMIN=  2; NELMDL= -5     # of ELM steps 
   EDIFF  = 0.1E-05   stopping-criterion for ELM
   LREAL  =      T    real-space projection
   NLSPLINE    = F    spline interpolate recip. space projectors
   LCOMPAT=      F    compatible to vasp.4.4
   GGA_COMPAT  = T    GGA compatible to vasp.4.4-vasp.4.6
   LMAXPAW     = -100 max onsite density
   LMAXMIX     =    2 max onsite mixed and CHGCAR
   VOSKOWN=      0    Vosko Wilk Nusair interpolation
   ROPT   =   -0.00050  -0.00050
 Ionic relaxation
   EDIFFG = -.1E-02   stopping-criterion for IOM
   NSW    =      0    number of steps for IOM
   NBLOCK =      1;   KBLOCK =      1    inner block; outer block 
   IBRION =     -1    ionic relax: 0-MD 1-quasi-New 2-CG
   NFREE  =      0    steps in history (QN), initial steepest desc. (CG)
   ISIF   =      2    stress and relaxation
   IWAVPR =     10    prediction:  0-non 1-charg 2-wave 3-comb
   ISYM   =      2    0-nonsym 1-usesym 2-fastsym
   LCORR  =      T    Harris-Foulkes like correction to forces

   POTIM  = 0.5000    time-step for ionic-motion
   TEIN   =    0.0    initial temperature
   TEBEG  =    0.0;   TEEND  =   0.0 temperature during run
   SMASS  =  -3.00    Nose mass-parameter (am)
   estimated Nose-frequenzy (Omega)   =  0.10E-29 period in steps = 0.13E+47 mass=  -0.237E-26a.u.
   SCALEE = 1.0000    scale energy and forces
   NPACO  =    256;   APACO  = 10.0  distance and # of slots for P.C.
   PSTRESS=    0.0 pullay stress

  Mass of Ions in am
   POMASS =  26.98 16.00
  Ionic Valenz
   ZVAL   =   3.00  6.00
  Atomic Wigner-Seitz radii
   RWIGS  =  -1.00 -1.00
  virtual crystal weights 
   VCA    =   1.00  1.00
   NELECT =     384.0000    total number of electrons
   NUPDOWN=      -1.0000    fix difference up-down

 DOS related values:
   EMIN   =  10.00;   EMAX   =-10.00  energy-range for DOS
   EFERMI =   0.00
   ISMEAR =     1;   SIGMA  =   0.03  broadening in eV -4-tet -1-fermi 0-gaus

 Electronic relaxation 2 (details)
   IALGO  =     38    algorithm
   LDIAG  =      T    sub-space diagonalisation (order eigenvalues)
   LSUBROT=      F    optimize rotation matrix (better conditioning)
   TURBO    =      0    0=normal 1=particle mesh
   IRESTART =      0    0=no restart 2=restart with 2 vectors
   NREBOOT  =      0    no. of reboots
   NMIN     =      0    reboot dimension
   EREF     =   0.00    reference energy to select bands
   IMIX   =      4    mixing-type and parameters
     AMIX     =   0.40;   BMIX     =  1.00
     AMIX_MAG =   1.60;   BMIX_MAG =  1.00
     AMIN     =   0.10
     WC   =   100.;   INIMIX=   1;  MIXPRE=   1;  MAXMIX= -45

 Intra band minimization:
   WEIMIN = 0.0000     energy-eigenvalue tresh-hold
   EBREAK =  0.11E-08  absolut break condition
   DEPER  =   0.30     relativ break condition  

   TIME   =   0.40     timestep for ELM

  volume/ion in A,a.u.               =       9.93        66.99
  Fermi-wavevector in a.u.,A,eV,Ry     =   1.284931  2.428167 22.463858  1.651047
  Thomas-Fermi vector in A             =   2.417095

 Write flags
   LWAVE        =      T    write WAVECAR
   LDOWNSAMPLE  =      F    k-point downsampling of WAVECAR
   LCHARG       =      T    write CHGCAR
   LVTOT        =      F    write LOCPOT, total local potential
   LVHAR        =      F    write LOCPOT, Hartree potential only
   LELF         =      F    write electronic localiz. function (ELF)
   LORBIT       =      0    0 simple, 1 ext, 2 COOP (PROOUT), +10 PAW based schemes


 Dipole corrections
   LMONO  =      F    monopole corrections only (constant potential shift)
   LDIPOL =      F    correct potential (dipole corrections)
   IDIPOL =      0    1-x, 2-y, 3-z, 4-all directions 
   EPSILON=  1.0000000 bulk dielectric constant

 Exchange correlation treatment:
   GGA     =    --    GGA type
   LEXCH   =     8    internal setting for exchange type
   LIBXC   =     F    Libxc                    
   VOSKOWN =     0    Vosko Wilk Nusair interpolation
   LHFCALC =     F    Hartree Fock is set to
   LHFONE  =     F    Hartree Fock one center treatment
   AEXX    =    0.0000 exact exchange contribution

 Linear response parameters
   LEPSILON=     F    determine dielectric tensor
   LRPA    =     F    only Hartree local field effects (RPA)
   LNABLA  =     F    use nabla operator in PAW spheres
   LVEL    =     F    velocity operator in full k-point grid
   CSHIFT  =0.1000    complex shift for real part using Kramers Kronig
   OMEGAMAX=  -1.0    maximum frequency
   DEG_THRESHOLD= 0.2000000E-02 threshold for treating states as degnerate
   RTIME   =   -0.100 relaxation time in fs
  (WPLASMAI=    0.000 imaginary part of plasma frequency in eV, 0.658/RTIME)
   DFIELD  = 0.0000000 0.0000000 0.0000000 field for delta impulse in time

  Optional k-point grid parameters
   LKPOINTS_OPT  =     F    use optional k-point grid
   KPOINTS_OPT_MODE=     1    mode for optional k-point grid

 Orbital magnetization related:
   ORBITALMAG=     F  switch on orbital magnetization
   LCHIMAG   =     F  perturbation theory with respect to B field
   DQ        =  0.001000  dq finite difference perturbation B field
   LLRAUG    =     F  two centre corrections for induced B field



--------------------------------------------------------------------------------------------------------


 Static calculation
 charge density and potential will be updated during run
 non-spin polarized calculation
 Variant of blocked Davidson
 Davidson routine will perform the subspace rotation
 perform sub-space diagonalisation
    after iterative eigenvector-optimisation
 modified Broyden-mixing scheme, WC =      100.0
 initial mixing is a Kerker type mixing with AMIX =  0.4000 and BMIX =      1.0000
 Hartree-type preconditioning will be used
 using additional bands           41
 real space projection scheme for non local part
 use partial core corrections
 calculate Harris-corrections to forces   (improved forces if not selfconsistent)
 use gradient corrections 
 use of overlap-Matrix (Vanderbilt PP)
 Methfessel and Paxton  Order N= 1 SIGMA  =   0.03


--------------------------------------------------------------------------------------------------------


  energy-cutoff  :      400.00
  volume of cell :      794.18
      direct lattice vectors                 reciprocal lattice vectors
    10.184968049  0.000000000  0.000000000     0.098183911  0.000000000  0.000000000
     0.000000000 10.474411764  0.000000000     0.000000000  0.095470755  0.000000000
     0.000000000  0.000000000  7.444358134     0.000000000  0.000000000  0.134329916

  length of vectors
    10.184968049 10.474411764  7.444358134     0.098183911  0.095470755  0.134329916



 k-points in units of 2pi/SCALE and weight: k-points                                
   0.01227299  0.01193384  0.01679124       0.125
   0.03681897  0.01193384  0.01679124       0.125
   0.01227299  0.03580153  0.01679124       0.125
   0.03681897  0.03580153  0.01679124       0.125
   0.01227299  0.01193384  0.05037372       0.125
   0.03681897  0.01193384  0.05037372       0.125
   0.01227299  0.03580153  0.05037372       0.125
   0.03681897  0.03580153  0.05037372       0.125

 k-points in reciprocal lattice and weights: k-points                                
   0.12500000  0.12500000  0.12500000       0.125
   0.37500000  0.12500000  0.12500000       0.125
   0.12500000  0.37500000  0.12500000       0.125
   0.37500000  0.37500000  0.12500000       0.125
   0.12500000  0.12500000  0.37500000       0.125
   0.37500000  0.12500000  0.37500000       0.125
   0.12500000  0.37500000  0.37500000       0.125
   0.37500000  0.37500000  0.37500000       0.125

 position of ions in fractional coordinates (direct lattice) 
   0.12615050  0.01569722  0.38998837
   0.12615050  0.51569723  0.38998837
   0.62615052  0.01569722  0.38998837
   0.62615052  0.51569723  0.38998837
   0.12615050  0.23430279  0.61001160
   0.12615050  0.73430277  0.61001160
   0.62615052  0.23430279  0.61001160
   0.62615052  0.73430277  0.61001160
   0.12384950  0.26569723  0.11001161
   0.12384950  0.76569723  0.11001161
   0.62384948  0.26569723  0.11001161
   0.62384948  0.76569723  0.11001161
   0.12384950  0.48430277  0.88998840
   0.12384950  0.98430277  0.88998840
   0.62384948  0.48430277  0.88998840
   0.62384948  0.98430277  0.88998840
   0.37384948  0.48430277  0.61001160
   0.37384948  0.98430277  0.61001160
   0.87384948  0.48430277  0.61001160
   0.87384948  0.98430277  0.61001160
   0.37384948  0.26569723  0.38998837
   0.37384948  0.76569723  0.38998837
   0.87384948  0.26569723  0.38998837
   0.87384948  0.76569723  0.38998837
   0.37615052  0.23430279  0.88998840
   0.37615052  0.73430277  0.88998840
   0.87615052  0.23430279  0.88998840
   0.87615052  0.73430277  0.88998840
   0.37615052  0.01569722  0.11001161
   0.37615052  0.51569723  0.11001161
   0.87615052  0.01569722  0.11001161
   0.87615052  0.51569723  0.11001161
   0.05353627  0.05119550  0.65414856
   0.05353627  0.55119553  0.65414856
   0.55353624  0.05119550  0.65414856
   0.55353624  0.55119553  0.65414856
   0.05353627  0.19880450  0.34585147
   0.05353627  0.69880447  0.34585147
   0.55353624  0.19880450  0.34585147
   0.55353624  0.69880447  0.34585147
   0.19646373  0.30119550  0.84585144
   0.19646373  0.80119553  0.84585144
   0.69646370  0.30119550  0.84585144
   0.69646370  0.80119553  0.84585144
   0.19646373  0.44880450  0.15414852
   0.19646373  0.94880447  0.15414852
   0.69646370  0.44880450  0.15414852
   0.69646370  0.94880447  0.15414852
   0.44646376  0.44880450  0.34585147
   0.44646376  0.94880447  0.34585147
   0.94646376  0.44880450  0.34585147
   0.94646376  0.94880447  0.34585147
   0.44646376  0.30119550  0.65414856
   0.44646376  0.80119553  0.65414856
   0.94646376  0.30119550  0.65414856
   0.94646376  0.80119553  0.65414856
   0.30353624  0.19880450  0.15414852
   0.30353624  0.69880447  0.15414852
   0.80353624  0.19880450  0.15414852
   0.80353624  0.69880447  0.15414852
   0.30353624  0.05119550  0.84585144
   0.30353624  0.55119553  0.84585144
   0.80353624  0.05119550  0.84585144
   0.80353624  0.55119553  0.84585144
   0.02509402  0.12500000  0.00000000
   0.02509402  0.62500000  0.00000000
   0.52509405  0.12500000  0.00000000
   0.52509405  0.62500000  0.00000000
   0.22490598  0.37500000  0.50000000
   0.22490598  0.87500000  0.50000000
   0.72490601  0.37500000  0.50000000
   0.72490601  0.87500000  0.50000000
   0.47490595  0.37500000  0.00000000
   0.47490595  0.87500000  0.00000000
   0.97490595  0.37500000  0.00000000
   0.97490595  0.87500000  0.00000000
   0.27509405  0.12500000  0.50000000
   0.27509405  0.62500000  0.50000000
   0.77509405  0.12500000  0.50000000
   0.77509405  0.62500000  0.50000000

 position of ions in cartesian coordinates  (Angst):
   1.28483886  0.16441911  2.90321308
   1.28483886  5.40162511  2.90321308
   6.37732304  0.16441911  2.90321308
   6.37732304  5.40162511  2.90321308
   1.28483886  2.45418387  4.54114483
   1.28483886  7.69138960  4.54114483
   6.37732304  2.45418387  4.54114483
   6.37732304  7.69138960  4.54114483
   1.26140315  2.78302217  0.81896582
   1.26140315  8.02022805  0.81896582
   6.35388702  2.78302217  0.81896582
   6.35388702  8.02022805  0.81896582
   1.26140315  5.07278666  6.62539237
   1.26140315 10.30999254  6.62539237
   6.35388702  5.07278666  6.62539237
   6.35388702 10.30999254  6.62539237
   3.80764501  5.07278666  4.54114483
   3.80764501 10.30999254  4.54114483
   8.90012904  5.07278666  4.54114483
   8.90012904 10.30999254  4.54114483
   3.80764501  2.78302217  2.90321308
   3.80764501  8.02022805  2.90321308
   8.90012904  2.78302217  2.90321308
   8.90012904  8.02022805  2.90321308
   3.83108102  2.45418387  6.62539237
   3.83108102  7.69138960  6.62539237
   8.92356505  2.45418387  6.62539237
   8.92356505  7.69138960  6.62539237
   3.83108102  0.16441911  0.81896582
   3.83108102  5.40162511  0.81896582
   8.92356505  0.16441911  0.81896582
   8.92356505  5.40162511  0.81896582
   0.54526515  0.53624274  4.86971616
   0.54526515  5.77344894  4.86971616
   5.63774895  0.53624274  4.86971616
   5.63774895  5.77344894  4.86971616
   0.54526515  2.08236020  2.57464219
   0.54526515  7.31956577  2.57464219
   5.63774895  2.08236020  2.57464219
   5.63774895  7.31956577  2.57464219
   2.00097678  3.15484568  6.29682104
   2.00097678  8.39205188  6.29682104
   7.09346051  3.15484568  6.29682104
   7.09346051  8.39205188  6.29682104
   2.00097678  4.70096314  1.14753676
   2.00097678  9.93816871  1.14753676
   7.09346051  4.70096314  1.14753676
   7.09346051  9.93816871  1.14753676
   4.54721910  4.70096314  2.57464219
   4.54721910  9.93816871  2.57464219
   9.63970312  4.70096314  2.57464219
   9.63970312  9.93816871  2.57464219
   4.54721910  3.15484568  4.86971616
   4.54721910  8.39205188  4.86971616
   9.63970312  3.15484568  4.86971616
   9.63970312  8.39205188  4.86971616
   3.09150694  2.08236020  1.14753676
   3.09150694  7.31956577  1.14753676
   8.18399096  2.08236020  1.14753676
   8.18399096  7.31956577  1.14753676
   3.09150694  0.53624274  6.29682104
   3.09150694  5.77344894  6.29682104
   8.18399096  0.53624274  6.29682104
   8.18399096  5.77344894  6.29682104
   0.25558183  1.30930147  0.00000000
   0.25558183  6.54650735  0.00000000
   5.34806612  1.30930147  0.00000000
   5.34806612  6.54650735  0.00000000
   2.29066022  3.92790441  3.72217907
   2.29066022  9.16511029  3.72217907
   7.38314455  3.92790441  3.72217907
   7.38314455  9.16511029  3.72217907
   4.83690193  3.92790441  0.00000000
   4.83690193  9.16511029  0.00000000
   9.92938595  3.92790441  0.00000000
   9.92938595  9.16511029  0.00000000
   2.80182411  1.30930147  3.72217907
   2.80182411  6.54650735  3.72217907
   7.89430813  1.30930147  3.72217907
   7.89430813  6.54650735  3.72217907



--------------------------------------------------------------------------------------------------------


 k-point   1 :   0.1250 0.1250 0.1250  plane waves:   14425
 k-point   2 :   0.3750 0.1250 0.1250  plane waves:   14390
 k-point   3 :   0.1250 0.3750 0.1250  plane waves:   14437
 k-point   4 :   0.3750 0.3750 0.1250  plane waves:   14428
 k-point   5 :   0.1250 0.1250 0.3750  plane waves:   14437
 k-point   6 :   0.3750 0.1250 0.3750  plane waves:   14424
 k-point   7 :   0.1250 0.3750 0.3750  plane waves:   14433
 k-point   8 :   0.3750 0.3750 0.3750  plane waves:   14435

 maximum and minimum number of plane-waves per node :     14437    14390

 maximum number of plane-waves:     14437
 maximum index in each direction: 
   IXMAX=   16   IYMAX=   16   IZMAX=   12
   IXMIN=  -16   IYMIN=  -17   IZMIN=  -12


 serial   3D FFT for wavefunctions
 parallel 3D FFT for charge:
    minimum data exchange during FFTs selected (reduces bandwidth)


 total amount of memory used by VASP MPI-rank0   563800. kBytes
=======================================================================

   base      :      30000. kBytes
   nonlr-proj:       8351. kBytes
   fftplans  :      27208. kBytes
   grid      :      48340. kBytes
   one-center:        245. kBytes
   wavefun   :     449656. kBytes

     INWAV:  cpu time      0.0001: real time      0.0003
 Broyden mixing: mesh for mixing (old mesh)
   NGX = 33   NGY = 35   NGZ = 25
  (NGX  =100   NGY  =108   NGZ  = 72)
  gives a total of  28875 points

 initial charge density was supplied:
 charge density of overlapping atoms calculated
 number of electron     384.0000000 magnetization 
 keeping initial charge density in first step


--------------------------------------------------------------------------------------------------------


 Maximum index for non-local projection operator         1320
 Maximum index for augmentation-charges         4612 (set IRDMAX)


--------------------------------------------------------------------------------------------------------


 First call to EWALD:  gamma=   0.191
 Maximum number of real-space cells 3x 2x 3
 Maximum number of reciprocal cells 3x 3x 2

    FEWALD:  cpu time      0.0801: real time      0.0805


--------------------------------------- Iteration      1(   1)  ---------------------------------------


    POTLOK:  cpu time      0.3869: real time      0.3888
    SETDIJ:  cpu time      0.0803: real time      0.0806
     EDDAV:  cpu time     55.2103: real time     55.7384
       DOS:  cpu time      0.0025: real time      0.0027
    --------------------------------------------
      LOOP:  cpu time     55.6801: real time     56.2105

 eigenvalue-minimisations  :  3728
 total energy-change (2. order) : 0.1858736E+04  (-0.1712272E+05)
 number of electron     384.0000000 magnetization 
 augmentation part      384.0000000 magnetization 

 Free energy of the ion-electron system (eV)
  ---------------------------------------------------
  alpha Z        PSCENC =       520.17510136
  Ewald energy   TEWEN  =    -18382.68149759
  -Hartree energ DENC   =     -5392.36380073
  -exchange      EXHF   =         0.00000000
  -V(xc)+E(xc)   XCENC  =       502.84544255
  PAW double counting   =     18752.77991877   -17816.57094691
  entropy T*S    EENTRO =        -0.00363026
  eigenvalues    EBANDS =      1212.70150555
  atomic energy  EATOM  =     22461.85434800
  Solvation  Ediel_sol  =         0.00000000
  ---------------------------------------------------
  free energy    TOTEN  =      1858.73644073 eV

  energy without entropy =     1858.74007099  energy(sigma->0) =     1858.73765082


--------------------------------------------------------------------------------------------------------




--------------------------------------- Iteration      1(   2)  ---------------------------------------


     EDDAV:  cpu time     63.7486: real time     64.3654
       DOS:  cpu time      0.0022: real time      0.0024
    --------------------------------------------
      LOOP:  cpu time     63.7508: real time     64.3678

 eigenvalue-minimisations  :  4480
 total energy-change (2. order) :-0.2353058E+04  (-0.2297159E+04)
 number of electron     384.0000000 magnetization 
 augmentation part      384.0000000 magnetization 

 Free energy of the ion-electron system (eV)
  ---------------------------------------------------
  alpha Z        PSCENC =       520.17510136
  Ewald energy   TEWEN  =    -18382.68149759
  -Hartree energ DENC   =     -5392.36380073
  -exchange      EXHF   =         0.00000000
  -V(xc)+E(xc)   XCENC  =       502.84544255
  PAW double counting   =     18752.77991877   -17816.57094691
  entropy T*S    EENTRO =         0.00018843
  eigenvalues    EBANDS =     -1140.36017738
  atomic energy  EATOM  =     22461.85434800
  Solvation  Ediel_sol  =         0.00000000
  ---------------------------------------------------
  free energy    TOTEN  =      -494.32142351 eV

  energy without entropy =     -494.32161194  energy(sigma->0) =     -494.32148632


--------------------------------------------------------------------------------------------------------




--------------------------------------- Iteration      1(   3)  ---------------------------------------


     EDDAV:  cpu time     61.8648: real time     62.4504
       DOS:  cpu time      0.0023: real time      0.0025
    --------------------------------------------
      LOOP:  cpu time     61.8671: real time     62.4529

 eigenvalue-minimisations  :  4320
 total energy-change (2. order) :-0.1482494E+03  (-0.1473000E+03)
 number of electron     384.0000000 magnetization 
 augmentation part      384.0000000 magnetization 

 Free energy of the ion-electron system (eV)
  ---------------------------------------------------
  alpha Z        PSCENC =       520.17510136
  Ewald energy   TEWEN  =    -18382.68149759
  -Hartree energ DENC   =     -5392.36380073
  -exchange      EXHF   =         0.00000000
  -V(xc)+E(xc)   XCENC  =       502.84544255
  PAW double counting   =     18752.77991877   -17816.57094691
  entropy T*S    EENTRO =         0.00282920
  eigenvalues    EBANDS =     -1288.61223159
  atomic energy  EATOM  =     22461.85434800
  Solvation  Ediel_sol  =         0.00000000
  ---------------------------------------------------
  free energy    TOTEN  =      -642.57083695 eV

  energy without entropy =     -642.57366615  energy(sigma->0) =     -642.57178002


--------------------------------------------------------------------------------------------------------




--------------------------------------- Iteration      1(   4)  ---------------------------------------


     EDDAV:  cpu time     62.1002: real time     62.7037
       DOS:  cpu time      0.0025: real time      0.0027
    --------------------------------------------
      LOOP:  cpu time     62.1027: real time     62.7064

 eigenvalue-minimisations  :  4336
 total energy-change (2. order) :-0.2156844E+01  (-0.2144854E+01)
 number of electron     384.0000000 magnetization 
 augmentation part      384.0000000 magnetization 

 Free energy of the ion-electron system (eV)
  ---------------------------------------------------
  alpha Z        PSCENC =       520.17510136
  Ewald energy   TEWEN  =    -18382.68149759
  -Hartree energ DENC   =     -5392.36380073
  -exchange      EXHF   =         0.00000000
  -V(xc)+E(xc)   XCENC  =       502.84544255
  PAW double counting   =     18752.77991877   -17816.57094691
  entropy T*S    EENTRO =         0.00288092
  eigenvalues    EBANDS =     -1290.76912714
  atomic energy  EATOM  =     22461.85434800
  Solvation  Ediel_sol  =         0.00000000
  ---------------------------------------------------
  free energy    TOTEN  =      -644.72768077 eV

  energy without entropy =     -644.73056169  energy(sigma->0) =     -644.72864108


--------------------------------------------------------------------------------------------------------




--------------------------------------- Iteration      1(   5)  ---------------------------------------


     EDDAV:  cpu time     61.4441: real time     62.0143
       DOS:  cpu time      0.0025: real time      0.0027
    CHARGE:  cpu time      2.0753: real time      2.0926
    MIXING:  cpu time      0.0123: real time      0.0124
    --------------------------------------------
      LOOP:  cpu time     63.5342: real time     64.1220

 eigenvalue-minimisations  :  4280
 total energy-change (2. order) :-0.4902892E-01  (-0.4891745E-01)
 number of electron     383.9998950 magnetization 
 augmentation part       36.3143524 magnetization 

 Broyden mixing:
  rms(total) = 0.46462E+01    rms(broyden)= 0.46445E+01
  rms(prec ) = 0.61421E+01
  weight for this iteration     100.00

 Free energy of the ion-electron system (eV)
  ---------------------------------------------------
  alpha Z        PSCENC =       520.17510136
  Ewald energy   TEWEN  =    -18382.68149759
  -Hartree energ DENC   =     -5392.36380073
  -exchange      EXHF   =         0.00000000
  -V(xc)+E(xc)   XCENC  =       502.84544255
  PAW double counting   =     18752.77991877   -17816.57094691
  entropy T*S    EENTRO =         0.00289203
  eigenvalues    EBANDS =     -1290.81816717
  atomic energy  EATOM  =     22461.85434800
  Solvation  Ediel_sol  =         0.00000000
  ---------------------------------------------------
  free energy    TOTEN  =      -644.77670969 eV

  energy without entropy =     -644.77960173  energy(sigma->0) =     -644.77767370


--------------------------------------------------------------------------------------------------------




--------------------------------------- Iteration      1(   6)  ---------------------------------------


    POTLOK:  cpu time      0.3803: real time      0.3827
    SETDIJ:  cpu time      0.0810: real time      0.0813
     EDDAV:  cpu time     58.9384: real time     59.4875
       DOS:  cpu time      0.0023: real time      0.0025
    CHARGE:  cpu time      2.1286: real time      2.1473
    MIXING:  cpu time      0.0139: real time      0.0140
    --------------------------------------------
      LOOP:  cpu time     61.5444: real time     62.1154

 eigenvalue-minimisations  :  4088
 total energy-change (2. order) : 0.6206040E+02  (-0.3064544E+02)
 number of electron     383.9999132 magnetization 
 augmentation part       29.8434443 magnetization 

 Broyden mixing:
  rms(total) = 0.16833E+01    rms(broyden)= 0.16804E+01
  rms(prec ) = 0.18620E+01
  weight for this iteration     100.00

 eigenvalues of (default mixing * dielectric matrix)
  average eigenvalue GAMMA=   0.8704
  0.8704

 Free energy of the ion-electron system (eV)
  ---------------------------------------------------
  alpha Z        PSCENC =       520.17510136
  Ewald energy   TEWEN  =    -18382.68149759
  -Hartree energ DENC   =     -6164.30852958
  -exchange      EXHF   =         0.00000000
  -V(xc)+E(xc)   XCENC  =       555.71267980
  PAW double counting   =     23099.50728165   -22175.86886155
  entropy T*S    EENTRO =         0.00184869
  eigenvalues    EBANDS =      -497.10868503
  atomic energy  EATOM  =     22461.85434800
  Solvation  Ediel_sol  =         0.00000000
  ---------------------------------------------------
  free energy    TOTEN  =      -582.71631425 eV

  energy without entropy =     -582.71816294  energy(sigma->0) =     -582.71693048


--------------------------------------------------------------------------------------------------------




--------------------------------------- Iteration      1(   7)  ---------------------------------------


    POTLOK:  cpu time      0.3874: real time      0.3902
    SETDIJ:  cpu time      0.0810: real time      0.0814
     EDDAV:  cpu time     60.3039: real time     60.8653
       DOS:  cpu time      0.0023: real time      0.0026
    CHARGE:  cpu time      2.1416: real time      2.1614
    MIXING:  cpu time      0.0150: real time      0.0151
    --------------------------------------------
      LOOP:  cpu time     62.9312: real time     63.5159

 eigenvalue-minimisations  :  4208
 total energy-change (2. order) : 0.2036633E+00  (-0.5280167E+00)
 number of electron     383.9999128 magnetization 
 augmentation part       29.9337824 magnetization 

 Broyden mixing:
  rms(total) = 0.93064E+00    rms(broyden)= 0.93058E+00
  rms(prec ) = 0.10582E+01
  weight for this iteration     100.00

 eigenvalues of (default mixing * dielectric matrix)
  average eigenvalue GAMMA=   1.2839
  1.0579  1.5099

 Free energy of the ion-electron system (eV)
  ---------------------------------------------------
  alpha Z        PSCENC =       520.17510136
  Ewald energy   TEWEN  =    -18382.68149759
  -Hartree energ DENC   =     -6171.16605375
  -exchange      EXHF   =         0.00000000
  -V(xc)+E(xc)   XCENC  =       556.81399198
  PAW double counting   =     25577.99957310   -24652.09270869
  entropy T*S    EENTRO =         0.00144917
  eigenvalues    EBANDS =      -493.41685456
  atomic energy  EATOM  =     22461.85434800
  Solvation  Ediel_sol  =         0.00000000
  ---------------------------------------------------
  free energy    TOTEN  =      -582.51265098 eV

  energy without entropy =     -582.51410015  energy(sigma->0) =     -582.51313404


--------------------------------------------------------------------------------------------------------




--------------------------------------- Iteration      1(   8)  ---------------------------------------


    POTLOK:  cpu time      0.3871: real time      0.3900
    SETDIJ:  cpu time      0.0797: real time      0.0801
     EDDAV:  cpu time     60.4210: real time     61.0095
       DOS:  cpu time      0.0024: real time      0.0027
    CHARGE:  cpu time      2.1375: real time      2.1629
    MIXING:  cpu time      0.0163: real time      0.0164
    --------------------------------------------
      LOOP:  cpu time     63.0440: real time     63.6616

 eigenvalue-minimisations  :  4224
 total energy-change (2. order) : 0.1731846E+00  (-0.6717271E-01)
 number of electron     383.9999126 magnetization 
 augmentation part       29.9711559 magnetization 

 Broyden mixing:
  rms(total) = 0.27360E+00    rms(broyden)= 0.27359E+00
  rms(prec ) = 0.31910E+00
  weight for this iteration     100.00

 eigenvalues of (default mixing * dielectric matrix)
  average eigenvalue GAMMA=   1.5366
  2.5152  1.0472  1.0472

 Free energy of the ion-electron system (eV)
  ---------------------------------------------------
  alpha Z        PSCENC =       520.17510136
  Ewald energy   TEWEN  =    -18382.68149759
  -Hartree energ DENC   =     -6194.68694865
  -exchange      EXHF   =         0.00000000
  -V(xc)+E(xc)   XCENC  =       559.54592700
  PAW double counting   =     27733.20987025   -26805.87721983
  entropy T*S    EENTRO =         0.00167700
  eigenvalues    EBANDS =      -473.88072390
  atomic energy  EATOM  =     22461.85434800
  Solvation  Ediel_sol  =         0.00000000
  ---------------------------------------------------
  free energy    TOTEN  =      -582.33946635 eV

  energy without entropy =     -582.34114335  energy(sigma->0) =     -582.34002535


--------------------------------------------------------------------------------------------------------




--------------------------------------- Iteration      1(   9)  ---------------------------------------


    POTLOK:  cpu time      0.3999: real time      0.4030
    SETDIJ:  cpu time      0.0811: real time      0.0815
     EDDAV:  cpu time     61.0302: real time     61.6067
       DOS:  cpu time      0.0025: real time      0.0027
    CHARGE:  cpu time      2.1406: real time      2.1599
    MIXING:  cpu time      0.0161: real time      0.0162
    --------------------------------------------
      LOOP:  cpu time     63.6703: real time     64.2700

 eigenvalue-minimisations  :  4280
 total energy-change (2. order) :-0.4615946E-01  (-0.1422128E-01)
 number of electron     383.9999127 magnetization 
 augmentation part       29.9342777 magnetization 

 Broyden mixing:
  rms(total) = 0.71628E-01    rms(broyden)= 0.71624E-01
  rms(prec ) = 0.74323E-01
  weight for this iteration     100.00

 eigenvalues of (default mixing * dielectric matrix)
  average eigenvalue GAMMA=   1.7058
  0.9900  0.9900  2.5863  2.2571

 Free energy of the ion-electron system (eV)
  ---------------------------------------------------
  alpha Z        PSCENC =       520.17510136
  Ewald energy   TEWEN  =    -18382.68149759
  -Hartree energ DENC   =     -6216.70787804
  -exchange      EXHF   =         0.00000000
  -V(xc)+E(xc)   XCENC  =       561.74504051
  PAW double counting   =     28450.86858768   -27523.13225299
  entropy T*S    EENTRO =         0.00179302
  eigenvalues    EBANDS =      -454.50886775
  atomic energy  EATOM  =     22461.85434800
  Solvation  Ediel_sol  =         0.00000000
  ---------------------------------------------------
  free energy    TOTEN  =      -582.38562581 eV

  energy without entropy =     -582.38741883  energy(sigma->0) =     -582.38622348


--------------------------------------------------------------------------------------------------------




--------------------------------------- Iteration      1(  10)  ---------------------------------------


    POTLOK:  cpu time      0.3879: real time      0.3908
    SETDIJ:  cpu time      0.0796: real time      0.0800
     EDDAV:  cpu time     62.0264: real time     62.7203
       DOS:  cpu time      0.0024: real time      0.0026
    CHARGE:  cpu time      2.1415: real time      2.1610
    MIXING:  cpu time      0.0169: real time      0.0170
    --------------------------------------------
      LOOP:  cpu time     64.6545: real time     65.3717

 eigenvalue-minimisations  :  4368
 total energy-change (2. order) :-0.6731570E-02  (-0.1610910E-02)
 number of electron     383.9999128 magnetization 
 augmentation part       29.9031588 magnetization 

 Broyden mixing:
  rms(total) = 0.24269E-01    rms(broyden)= 0.24259E-01
  rms(prec ) = 0.27921E-01
  weight for this iteration     100.00

 eigenvalues of (default mixing * dielectric matrix)
  average eigenvalue GAMMA=   1.5887
  2.7604  2.3861  0.9816  0.9816  0.8337

 Free energy of the ion-electron system (eV)
  ---------------------------------------------------
  alpha Z        PSCENC =       520.17510136
  Ewald energy   TEWEN  =    -18382.68149759
  -Hartree energ DENC   =     -6220.67568370
  -exchange      EXHF   =         0.00000000
  -V(xc)+E(xc)   XCENC  =       562.09189545
  PAW double counting   =     28134.82401122   -27207.21761953
  entropy T*S    EENTRO =         0.00173813
  eigenvalues    EBANDS =      -450.76465073
  atomic energy  EATOM  =     22461.85434800
  Solvation  Ediel_sol  =         0.00000000
  ---------------------------------------------------
  free energy    TOTEN  =      -582.39235738 eV

  energy without entropy =     -582.39409551  energy(sigma->0) =     -582.39293676


--------------------------------------------------------------------------------------------------------




--------------------------------------- Iteration      1(  11)  ---------------------------------------


    POTLOK:  cpu time      0.3943: real time      0.3972
    SETDIJ:  cpu time      0.0799: real time      0.0804
     EDDAV:  cpu time     61.2585: real time     62.6118
       DOS:  cpu time      0.0024: real time      0.0026
    CHARGE:  cpu time      2.1440: real time      2.2311
    MIXING:  cpu time      0.0188: real time      0.0189
    --------------------------------------------
      LOOP:  cpu time     63.8978: real time     65.3420

 eigenvalue-minimisations  :  4288
 total energy-change (2. order) : 0.3304876E-03  (-0.2836938E-03)
 number of electron     383.9999127 magnetization 
 augmentation part       29.9199881 magnetization 

 Broyden mixing:
  rms(total) = 0.10208E-01    rms(broyden)= 0.10205E-01
  rms(prec ) = 0.11474E-01
  weight for this iteration     100.00

 eigenvalues of (default mixing * dielectric matrix)
  average eigenvalue GAMMA=   1.5597
  2.7967  2.3946  0.9859  0.9859  1.0975  1.0975

 Free energy of the ion-electron system (eV)
  ---------------------------------------------------
  alpha Z        PSCENC =       520.17510136
  Ewald energy   TEWEN  =    -18382.68149759
  -Hartree energ DENC   =     -6219.25569447
  -exchange      EXHF   =         0.00000000
  -V(xc)+E(xc)   XCENC  =       562.00681889
  PAW double counting   =     28077.57546129   -27149.93658934
  entropy T*S    EENTRO =         0.00174462
  eigenvalues    EBANDS =      -452.13171966
  atomic energy  EATOM  =     22461.85434800
  Solvation  Ediel_sol  =         0.00000000
  ---------------------------------------------------
  free energy    TOTEN  =      -582.39202689 eV

  energy without entropy =     -582.39377152  energy(sigma->0) =     -582.39260844


--------------------------------------------------------------------------------------------------------




--------------------------------------- Iteration      1(  12)  ---------------------------------------


    POTLOK:  cpu time      0.4148: real time      0.4180
    SETDIJ:  cpu time      0.0811: real time      0.0815
     EDDAV:  cpu time     60.8647: real time     62.2542
       DOS:  cpu time      0.0024: real time      0.0026
    CHARGE:  cpu time      2.1393: real time      2.1581
    MIXING:  cpu time      0.0197: real time      0.0199
    --------------------------------------------
      LOOP:  cpu time     63.5220: real time     64.9344

 eigenvalue-minimisations  :  4256
 total energy-change (2. order) :-0.1986107E-04  (-0.1263632E-03)
 number of electron     383.9999127 magnetization 
 augmentation part       29.9236585 magnetization 

 Broyden mixing:
  rms(total) = 0.49260E-02    rms(broyden)= 0.49181E-02
  rms(prec ) = 0.56202E-02
  weight for this iteration     100.00

 eigenvalues of (default mixing * dielectric matrix)
  average eigenvalue GAMMA=   1.4735
  2.8716  2.4214  1.1247  1.1247  0.9984  0.8870  0.8870

 Free energy of the ion-electron system (eV)
  ---------------------------------------------------
  alpha Z        PSCENC =       520.17510136
  Ewald energy   TEWEN  =    -18382.68149759
  -Hartree energ DENC   =     -6219.10397039
  -exchange      EXHF   =         0.00000000
  -V(xc)+E(xc)   XCENC  =       561.99563407
  PAW double counting   =     28054.30184500   -27126.66490074
  entropy T*S    EENTRO =         0.00175073
  eigenvalues    EBANDS =      -452.27035718
  atomic energy  EATOM  =     22461.85434800
  Solvation  Ediel_sol  =         0.00000000
  ---------------------------------------------------
  free energy    TOTEN  =      -582.39204675 eV

  energy without entropy =     -582.39379748  energy(sigma->0) =     -582.39263033


--------------------------------------------------------------------------------------------------------




--------------------------------------- Iteration      1(  13)  ---------------------------------------


    POTLOK:  cpu time      0.4064: real time      0.4097
    SETDIJ:  cpu time      0.0795: real time      0.0800
     EDDAV:  cpu time     64.1460: real time     65.5217
       DOS:  cpu time      0.0024: real time      0.0026
    CHARGE:  cpu time      2.1404: real time      2.1590
    MIXING:  cpu time      0.0199: real time      0.0200
    --------------------------------------------
      LOOP:  cpu time     66.7947: real time     68.1931

 eigenvalue-minimisations  :  4544
 total energy-change (2. order) : 0.1284941E-04  (-0.1589459E-04)
 number of electron     383.9999127 magnetization 
 augmentation part       29.9261165 magnetization 

 Broyden mixing:
  rms(total) = 0.24347E-02    rms(broyden)= 0.24336E-02
  rms(prec ) = 0.26987E-02
  weight for this iteration     100.00

 eigenvalues of (default mixing * dielectric matrix)
  average eigenvalue GAMMA=   1.5216
  2.8598  2.3851  2.0657  1.0319  1.0319  0.9105  0.9440  0.9440

 Free energy of the ion-electron system (eV)
  ---------------------------------------------------
  alpha Z        PSCENC =       520.17510136
  Ewald energy   TEWEN  =    -18382.68149759
  -Hartree energ DENC   =     -6218.81035827
  -exchange      EXHF   =         0.00000000
  -V(xc)+E(xc)   XCENC  =       561.97528901
  PAW double counting   =     28044.67480837   -27117.02969680
  entropy T*S    EENTRO =         0.00174554
  eigenvalues    EBANDS =      -452.55177354
  atomic energy  EATOM  =     22461.85434800
  Solvation  Ediel_sol  =         0.00000000
  ---------------------------------------------------
  free energy    TOTEN  =      -582.39203391 eV

  energy without entropy =     -582.39377945  energy(sigma->0) =     -582.39261575


--------------------------------------------------------------------------------------------------------




--------------------------------------- Iteration      1(  14)  ---------------------------------------


    POTLOK:  cpu time      0.3930: real time      0.3992
    SETDIJ:  cpu time      0.0794: real time      0.0798
     EDDAV:  cpu time     60.7305: real time     62.3156
       DOS:  cpu time      0.0025: real time      0.0027
    CHARGE:  cpu time      2.1589: real time      2.2462
    MIXING:  cpu time      0.0222: real time      0.0224
    --------------------------------------------
      LOOP:  cpu time     63.3865: real time     65.0659

 eigenvalue-minimisations  :  4256
 total energy-change (2. order) : 0.5426951E-05  (-0.4237768E-05)
 number of electron     383.9999127 magnetization 
 augmentation part       29.9247639 magnetization 

 Broyden mixing:
  rms(total) = 0.72329E-03    rms(broyden)= 0.72208E-03
  rms(prec ) = 0.75697E-03
  weight for this iteration     100.00

 eigenvalues of (default mixing * dielectric matrix)
  average eigenvalue GAMMA=   1.5453
  2.9790  2.6045  2.3286  1.1864  1.0231  1.0231  0.8945  0.9341  0.9341

 Free energy of the ion-electron system (eV)
  ---------------------------------------------------
  alpha Z        PSCENC =       520.17510136
  Ewald energy   TEWEN  =    -18382.68149759
  -Hartree energ DENC   =     -6218.95095189
  -exchange      EXHF   =         0.00000000
  -V(xc)+E(xc)   XCENC  =       561.98205979
  PAW double counting   =     28040.27940598   -27112.63480556
  entropy T*S    EENTRO =         0.00174360
  eigenvalues    EBANDS =      -452.41743216
  atomic energy  EATOM  =     22461.85434800
  Solvation  Ediel_sol  =         0.00000000
  ---------------------------------------------------
  free energy    TOTEN  =      -582.39202848 eV

  energy without entropy =     -582.39377208  energy(sigma->0) =     -582.39260968


--------------------------------------------------------------------------------------------------------




--------------------------------------- Iteration      1(  15)  ---------------------------------------


    POTLOK:  cpu time      0.3954: real time      0.3987
    SETDIJ:  cpu time      0.0795: real time      0.0799
     EDDAV:  cpu time     43.0733: real time     44.1327
       DOS:  cpu time      0.0026: real time      0.0028
    --------------------------------------------
      LOOP:  cpu time     43.5508: real time     44.6141

 eigenvalue-minimisations  :  2680
 total energy-change (2. order) : 0.1849548E-07  (-0.2817948E-06)
 number of electron     383.9999127 magnetization 
 augmentation part       29.9247639 magnetization 

 Free energy of the ion-electron system (eV)
  ---------------------------------------------------
  alpha Z        PSCENC =       520.17510136
  Ewald energy   TEWEN  =    -18382.68149759
  -Hartree energ DENC   =     -6219.00286909
  -exchange      EXHF   =         0.00000000
  -V(xc)+E(xc)   XCENC  =       561.98474497
  PAW double counting   =     28037.25993621   -27109.61494807
  entropy T*S    EENTRO =         0.00174324
  eigenvalues    EBANDS =      -452.36858750
  atomic energy  EATOM  =     22461.85434800
  Solvation  Ediel_sol  =         0.00000000
  ---------------------------------------------------
  free energy    TOTEN  =      -582.39202846 eV

  energy without entropy =     -582.39377170  energy(sigma->0) =     -582.39260954


--------------------------------------------------------------------------------------------------------




 average (electrostatic) potential at core
  the test charge radii are     1.0406  0.7215
  (the norm of the test charge is              1.0000)
       1 -73.8099       2 -73.8099       3 -73.8099       4 -73.8099       5 -73.8099
       6 -73.8099       7 -73.8099       8 -73.8099       9 -73.8099      10 -73.8099
      11 -73.8099      12 -73.8099      13 -73.8099      14 -73.8099      15 -73.8099
      16 -73.8100      17 -73.8099      18 -73.8099      19 -73.8099      20 -73.8099
      21 -73.8099      22 -73.8099      23 -73.8099      24 -73.8099      25 -73.8099
      26 -73.8099      27 -73.8099      28 -73.8099      29 -73.8099      30 -73.8099
      31 -73.8099      32 -73.8099      33 -68.5620      34 -68.5620      35 -68.5620
      36 -68.5620      37 -68.5620      38 -68.5620      39 -68.5620      40 -68.5620
      41 -68.5620      42 -68.5620      43 -68.5620      44 -68.5620      45 -68.5620
      46 -68.5620      47 -68.5620      48 -68.5620      49 -68.5620      50 -68.5620
      51 -68.5620      52 -68.5620      53 -68.5620      54 -68.5620      55 -68.5620
      56 -68.5620      57 -68.5620      58 -68.5620      59 -68.5620      60 -68.5620
      61 -68.5620      62 -68.5620      63 -68.5620      64 -68.5620      65 -68.4882
      66 -68.4882      67 -68.4882      68 -68.4882      69 -68.4882      70 -68.4882
      71 -68.4882      72 -68.4882      73 -68.4882      74 -68.4882      75 -68.4882
      76 -68.4882      77 -68.4882      78 -68.4882      79 -68.4882      80 -68.4882



 E-fermi :   4.7119     XC(G=0): -11.0181     alpha+bet :-14.4164

 Fermi energy:         4.7118611565

 k-point     1 :       0.1250    0.1250    0.1250
  band No.  band energies     occupation 
      1     -13.3624      2.00000
      2     -12.8955      2.00000
      3     -12.8819      2.00000
      4     -12.6228      2.00000
      5     -12.6125      2.00000
      6     -12.5983      2.00000
      7     -12.4805      2.00000
      8     -12.2594      2.00000
      9     -12.2563      2.00000
     10     -12.2084      2.00000
     11     -12.2075      2.00000
     12     -12.0920      2.00000
     13     -12.0381      2.00000
     14     -11.9922      2.00000
     15     -11.8784      2.00000
     16     -11.8326      2.00000
     17     -11.8224      2.00000
     18     -11.7677      2.00000
     19     -11.7268      2.00000
     20     -11.7107      2.00000
     21     -11.6621      2.00000
     22     -11.6568      2.00000
     23     -11.6359      2.00000
     24     -11.5858      2.00000
     25     -11.5845      2.00000
     26     -11.5794      2.00000
     27     -11.5503      2.00000
     28     -11.5094      2.00000
     29     -11.4880      2.00000
     30     -11.4452      2.00000
     31     -11.4168      2.00000
     32     -11.3932      2.00000
     33     -11.3168      2.00000
     34     -11.2928      2.00000
     35     -11.2925      2.00000
     36     -11.2859      2.00000
     37     -11.2672      2.00000
     38     -11.2580      2.00000
     39     -11.2567      2.00000
     40     -11.2532      2.00000
     41     -11.2057      2.00000
     42     -11.1970      2.00000
     43     -11.1896      2.00000
     44     -11.1705      2.00000
     45     -11.1308      2.00000
     46     -11.0909      2.00000
     47     -11.0444      2.00000
     48     -11.0230      2.00000
     49      -0.8682      2.00000
     50      -0.8671      2.00000
     51      -0.7428      2.00000
     52      -0.7125      2.00000
     53      -0.7035      2.00000
     54      -0.6872      2.00000
     55      -0.6176      2.00000
     56      -0.5387      2.00000
     57      -0.5212      2.00000
     58      -0.4934      2.00000
     59      -0.4857      2.00000
     60      -0.4750      2.00000
     61      -0.4217      2.00000
     62      -0.3444      2.00000
     63      -0.3330      2.00000
     64      -0.2640      2.00000
     65      -0.2124      2.00000
     66      -0.0567      2.00000
     67      -0.0051      2.00000
     68       0.2094      2.00000
     69       0.2196      2.00000
     70       0.2402      2.00000
     71       0.2684      2.00000
     72       0.3114      2.00000
     73       0.3488      2.00000
     74       0.3587      2.00000
     75       0.4462      2.00000
     76       0.4780      2.00000
     77       0.6124      2.00000
     78       0.6463      2.00000
     79       0.6976      2.00000
     80       0.8243      2.00000
     81       0.8397      2.00000
     82       0.8409      2.00000
     83       0.9157      2.00000
     84       0.9962      2.00000
     85       0.9987      2.00000
     86       1.0024      2.00000
     87       1.0495      2.00000
     88       1.0511      2.00000
     89       1.0874      2.00000
     90       1.1033      2.00000
     91       1.1526      2.00000
     92       1.1784      2.00000
     93       1.2213      2.00000
     94       1.2496      2.00000
     95       1.2581      2.00000
     96       1.4602      2.00000
     97       1.4634      2.00000
     98       1.5214      2.00000
     99       1.5778      2.00000
    100       1.6893      2.00000
    101       1.7650      2.00000
    102       1.7841      2.00000
    103       1.8458      2.00000
    104       1.9008      2.00000
    105       2.0084      2.00000
    106       2.0302      2.00000
    107       2.1008      2.00000
    108       2.1013      2.00000
    109       2.1248      2.00000
    110       2.2750      2.00000
    111       2.2754      2.00000
    112       2.3574      2.00000
    113       2.3766      2.00000
    114       2.3858      2.00000
    115       2.4873      2.00000
    116       2.4905      2.00000
    117       2.4970      2.00000
    118       2.5129      2.00000
    119       2.5523      2.00000
    120       2.6346      2.00000
    121       2.6414      2.00000
    122       2.6702      2.00000
    123       2.6710      2.00000
    124       2.7729      2.00000
    125       2.7924      2.00000
    126       2.8201      2.00000
    127       2.8987      2.00000
    128       2.9344      2.00000
    129       2.9594      2.00000
    130       2.9979      2.00000
    131       3.1206      2.00000
    132       3.1545      2.00000
    133       3.1622      2.00000
    134       3.1624      2.00000
    135       3.2249      2.00000
    136       3.3084      2.00000
    137       3.3101      2.00000
    138       3.3123      2.00000
    139       3.3607      2.00000
    140       3.3700      2.00000
    141       3.4159      2.00000
    142       3.4644      2.00000
    143       3.5134      2.00000
    144       3.5181      2.00000
    145       3.5324      2.00000
    146       3.5360      2.00000
    147       3.5527      2.00000
    148       3.5854      2.00000
    149       3.6371      2.00000
    150       3.6671      2.00000
    151       3.6677      2.00000
    152       3.6864      2.00000
    153       3.7052      2.00000
    154       3.7416      2.00000
    155       3.7453      2.00000
    156       3.7541      2.00000
    157       3.8252      2.00000
    158       3.8571      2.00000
    159       3.8999      2.00000
    160       3.9211      2.00000
    161       3.9239      2.00000
    162       3.9497      2.00000
    163       3.9650      2.00000
    164       3.9807      2.00000
    165       4.0367      2.00000
    166       4.0656      2.00000
    167       4.0729      2.00000
    168       4.1443      2.00000
    169       4.1671      2.00000
    170       4.1828      2.00000
    171       4.1995      2.00000
    172       4.2461      2.00000
    173       4.2470      2.00000
    174       4.2494      2.00000
    175       4.2882      2.00000
    176       4.3402      2.00000
    177       4.3617      2.00000
    178       4.3736      2.00000
    179       4.4106      2.00000
    180       4.4472      2.00000
    181       4.4792      2.00000
    182       4.5183      2.00000
    183       4.5250      2.00000
    184       4.5355      2.00000
[...]
     0.000000000 10.474411764  0.000000000     0.000000000  0.095470755  0.000000000
     0.000000000  0.000000000  7.444358134     0.000000000  0.000000000  0.134329916

  length of vectors
    10.184968049 10.474411764  7.444358134     0.098183911  0.095470755  0.134329916


 FORCES acting on ions
    electron-ion (+dipol)            ewald-force                    non-local-force                 convergence-correction
 -----------------------------------------------------------------------------------------------
   0.296E+01 -.259E+01 0.148E+02   -.292E+01 0.627E+00 -.140E+02   -.442E-01 0.168E+01 -.535E+00   0.515E-04 -.804E-05 0.139E-03
   0.296E+01 -.259E+01 0.148E+02   -.292E+01 0.627E+00 -.140E+02   -.442E-01 0.168E+01 -.535E+00   0.515E-04 -.439E-05 0.138E-03
   0.296E+01 -.259E+01 0.148E+02   -.292E+01 0.627E+00 -.140E+02   -.442E-01 0.168E+01 -.535E+00   0.496E-04 -.804E-05 0.138E-03
   0.296E+01 -.259E+01 0.148E+02   -.292E+01 0.627E+00 -.140E+02   -.442E-01 0.168E+01 -.535E+00   0.496E-04 -.438E-05 0.138E-03
   0.296E+01 0.259E+01 -.148E+02   -.292E+01 -.627E+00 0.140E+02   -.442E-01 -.168E+01 0.535E+00   0.515E-04 0.625E-05 -.138E-03
   0.296E+01 0.259E+01 -.148E+02   -.292E+01 -.627E+00 0.140E+02   -.442E-01 -.168E+01 0.535E+00   0.515E-04 0.618E-05 -.138E-03
   0.296E+01 0.259E+01 -.148E+02   -.292E+01 -.627E+00 0.140E+02   -.442E-01 -.168E+01 0.535E+00   0.496E-04 0.625E-05 -.138E-03
   0.296E+01 0.259E+01 -.148E+02   -.292E+01 -.627E+00 0.140E+02   -.442E-01 -.168E+01 0.535E+00   0.496E-04 0.618E-05 -.138E-03
   -.296E+01 -.259E+01 -.148E+02   0.292E+01 0.627E+00 0.140E+02   0.442E-01 0.168E+01 0.535E+00   -.496E-04 -.563E-05 -.139E-03
   -.296E+01 -.259E+01 -.148E+02   0.292E+01 0.627E+00 0.140E+02   0.442E-01 0.168E+01 0.535E+00   -.496E-04 -.675E-05 -.139E-03
   -.296E+01 -.259E+01 -.148E+02   0.292E+01 0.627E+00 0.140E+02   0.442E-01 0.168E+01 0.535E+00   -.516E-04 -.563E-05 -.139E-03
   -.296E+01 -.259E+01 -.148E+02   0.292E+01 0.627E+00 0.140E+02   0.442E-01 0.168E+01 0.535E+00   -.516E-04 -.675E-05 -.139E-03
   -.296E+01 0.259E+01 0.148E+02   0.292E+01 -.627E+00 -.140E+02   0.442E-01 -.168E+01 -.535E+00   -.496E-04 0.807E-05 0.138E-03
   -.296E+01 0.259E+01 0.148E+02   0.292E+01 -.627E+00 -.140E+02   0.442E-01 -.168E+01 -.535E+00   -.496E-04 0.431E-05 0.138E-03
   -.296E+01 0.259E+01 0.148E+02   0.292E+01 -.627E+00 -.140E+02   0.442E-01 -.168E+01 -.535E+00   -.516E-04 0.807E-05 0.138E-03
   -.296E+01 0.259E+01 0.148E+02   0.292E+01 -.627E+00 -.140E+02   0.442E-01 -.168E+01 -.535E+00   -.516E-04 0.431E-05 0.138E-03
   -.296E+01 0.259E+01 -.148E+02   0.292E+01 -.627E+00 0.140E+02   0.442E-01 -.168E+01 0.535E+00   -.505E-04 0.807E-05 -.138E-03
   -.296E+01 0.259E+01 -.148E+02   0.292E+01 -.627E+00 0.140E+02   0.442E-01 -.168E+01 0.535E+00   -.505E-04 0.432E-05 -.138E-03
   -.296E+01 0.259E+01 -.148E+02   0.292E+01 -.627E+00 0.140E+02   0.442E-01 -.168E+01 0.535E+00   -.506E-04 0.807E-05 -.138E-03
   -.296E+01 0.259E+01 -.148E+02   0.292E+01 -.627E+00 0.140E+02   0.442E-01 -.168E+01 0.535E+00   -.506E-04 0.431E-05 -.138E-03
   -.296E+01 -.259E+01 0.148E+02   0.292E+01 0.627E+00 -.140E+02   0.442E-01 0.168E+01 -.535E+00   -.505E-04 -.563E-05 0.138E-03
   -.296E+01 -.259E+01 0.148E+02   0.292E+01 0.627E+00 -.140E+02   0.442E-01 0.168E+01 -.535E+00   -.505E-04 -.675E-05 0.138E-03
   -.296E+01 -.259E+01 0.148E+02   0.292E+01 0.627E+00 -.140E+02   0.442E-01 0.168E+01 -.535E+00   -.506E-04 -.563E-05 0.138E-03
   -.296E+01 -.259E+01 0.148E+02   0.292E+01 0.627E+00 -.140E+02   0.442E-01 0.168E+01 -.535E+00   -.506E-04 -.675E-05 0.138E-03
   0.296E+01 0.259E+01 0.148E+02   -.292E+01 -.627E+00 -.140E+02   -.442E-01 -.168E+01 -.535E+00   0.507E-04 0.625E-05 0.138E-03
   0.296E+01 0.259E+01 0.148E+02   -.292E+01 -.627E+00 -.140E+02   -.442E-01 -.168E+01 -.535E+00   0.507E-04 0.618E-05 0.138E-03
   0.296E+01 0.259E+01 0.148E+02   -.292E+01 -.627E+00 -.140E+02   -.442E-01 -.168E+01 -.535E+00   0.505E-04 0.625E-05 0.138E-03
   0.296E+01 0.259E+01 0.148E+02   -.292E+01 -.627E+00 -.140E+02   -.442E-01 -.168E+01 -.535E+00   0.505E-04 0.618E-05 0.138E-03
   0.296E+01 -.259E+01 -.148E+02   -.292E+01 0.627E+00 0.140E+02   -.442E-01 0.168E+01 0.535E+00   0.507E-04 -.804E-05 -.139E-03
   0.296E+01 -.259E+01 -.148E+02   -.292E+01 0.627E+00 0.140E+02   -.442E-01 0.168E+01 0.535E+00   0.507E-04 -.439E-05 -.139E-03
   0.296E+01 -.259E+01 -.148E+02   -.292E+01 0.627E+00 0.140E+02   -.442E-01 0.168E+01 0.535E+00   0.505E-04 -.804E-05 -.139E-03
   0.296E+01 -.259E+01 -.148E+02   -.292E+01 0.627E+00 0.140E+02   -.442E-01 0.168E+01 0.535E+00   0.505E-04 -.438E-05 -.139E-03
   0.609E+01 0.297E+01 -.166E+02   -.486E+01 -.231E+01 0.173E+02   -.132E+01 -.748E+00 -.806E+00   -.155E-03 0.611E-04 -.835E-03
   0.609E+01 0.297E+01 -.166E+02   -.486E+01 -.231E+01 0.173E+02   -.132E+01 -.748E+00 -.806E+00   -.155E-03 0.691E-04 -.836E-03
   0.609E+01 0.297E+01 -.166E+02   -.486E+01 -.231E+01 0.173E+02   -.132E+01 -.748E+00 -.806E+00   -.159E-03 0.612E-04 -.835E-03
   0.609E+01 0.297E+01 -.166E+02   -.486E+01 -.231E+01 0.173E+02   -.132E+01 -.748E+00 -.806E+00   -.159E-03 0.691E-04 -.835E-03
   0.609E+01 -.297E+01 0.166E+02   -.486E+01 0.231E+01 -.173E+02   -.132E+01 0.748E+00 0.806E+00   -.155E-03 -.655E-04 0.837E-03
   0.609E+01 -.297E+01 0.166E+02   -.486E+01 0.231E+01 -.173E+02   -.132E+01 0.748E+00 0.806E+00   -.155E-03 -.647E-04 0.837E-03
   0.609E+01 -.297E+01 0.166E+02   -.486E+01 0.231E+01 -.173E+02   -.132E+01 0.748E+00 0.806E+00   -.159E-03 -.655E-04 0.836E-03
   0.609E+01 -.297E+01 0.166E+02   -.486E+01 0.231E+01 -.173E+02   -.132E+01 0.748E+00 0.806E+00   -.159E-03 -.647E-04 0.836E-03
   -.609E+01 0.297E+01 0.166E+02   0.486E+01 -.231E+01 -.173E+02   0.132E+01 -.748E+00 0.806E+00   0.159E-03 0.669E-04 0.836E-03
   -.609E+01 0.297E+01 0.166E+02   0.486E+01 -.231E+01 -.173E+02   0.132E+01 -.748E+00 0.806E+00   0.159E-03 0.635E-04 0.836E-03
   -.609E+01 0.297E+01 0.166E+02   0.486E+01 -.231E+01 -.173E+02   0.132E+01 -.748E+00 0.806E+00   0.155E-03 0.669E-04 0.837E-03
   -.609E+01 0.297E+01 0.166E+02   0.486E+01 -.231E+01 -.173E+02   0.132E+01 -.748E+00 0.806E+00   0.155E-03 0.635E-04 0.837E-03
   -.609E+01 -.297E+01 -.166E+02   0.486E+01 0.231E+01 0.173E+02   0.132E+01 0.748E+00 -.806E+00   0.159E-03 -.607E-04 -.837E-03
   -.609E+01 -.297E+01 -.166E+02   0.486E+01 0.231E+01 0.173E+02   0.132E+01 0.748E+00 -.806E+00   0.159E-03 -.696E-04 -.838E-03
   -.609E+01 -.297E+01 -.166E+02   0.486E+01 0.231E+01 0.173E+02   0.132E+01 0.748E+00 -.806E+00   0.155E-03 -.607E-04 -.838E-03
   -.609E+01 -.297E+01 -.166E+02   0.486E+01 0.231E+01 0.173E+02   0.132E+01 0.748E+00 -.806E+00   0.155E-03 -.696E-04 -.838E-03
   -.609E+01 -.297E+01 0.166E+02   0.486E+01 0.231E+01 -.173E+02   0.132E+01 0.748E+00 0.806E+00   0.156E-03 -.607E-04 0.836E-03
   -.609E+01 -.297E+01 0.166E+02   0.486E+01 0.231E+01 -.173E+02   0.132E+01 0.748E+00 0.806E+00   0.156E-03 -.696E-04 0.837E-03
   -.609E+01 -.297E+01 0.166E+02   0.486E+01 0.231E+01 -.173E+02   0.132E+01 0.748E+00 0.806E+00   0.158E-03 -.607E-04 0.837E-03
   -.609E+01 -.297E+01 0.166E+02   0.486E+01 0.231E+01 -.173E+02   0.132E+01 0.748E+00 0.806E+00   0.158E-03 -.696E-04 0.837E-03
   -.609E+01 0.297E+01 -.166E+02   0.486E+01 -.231E+01 0.173E+02   0.132E+01 -.748E+00 -.806E+00   0.156E-03 0.669E-04 -.835E-03
   -.609E+01 0.297E+01 -.166E+02   0.486E+01 -.231E+01 0.173E+02   0.132E+01 -.748E+00 -.806E+00   0.156E-03 0.635E-04 -.835E-03
   -.609E+01 0.297E+01 -.166E+02   0.486E+01 -.231E+01 0.173E+02   0.132E+01 -.748E+00 -.806E+00   0.158E-03 0.669E-04 -.836E-03
   -.609E+01 0.297E+01 -.166E+02   0.486E+01 -.231E+01 0.173E+02   0.132E+01 -.748E+00 -.806E+00   0.158E-03 0.635E-04 -.835E-03
   0.609E+01 -.297E+01 -.166E+02   -.486E+01 0.231E+01 0.173E+02   -.132E+01 0.748E+00 -.806E+00   -.156E-03 -.655E-04 -.838E-03
   0.609E+01 -.297E+01 -.166E+02   -.486E+01 0.231E+01 0.173E+02   -.132E+01 0.748E+00 -.806E+00   -.156E-03 -.647E-04 -.838E-03
   0.609E+01 -.297E+01 -.166E+02   -.486E+01 0.231E+01 0.173E+02   -.132E+01 0.748E+00 -.806E+00   -.158E-03 -.656E-04 -.838E-03
   0.609E+01 -.297E+01 -.166E+02   -.486E+01 0.231E+01 0.173E+02   -.132E+01 0.748E+00 -.806E+00   -.158E-03 -.647E-04 -.838E-03
   0.609E+01 0.297E+01 0.166E+02   -.486E+01 -.231E+01 -.173E+02   -.132E+01 -.748E+00 0.806E+00   -.156E-03 0.611E-04 0.836E-03
   0.609E+01 0.297E+01 0.166E+02   -.486E+01 -.231E+01 -.173E+02   -.132E+01 -.748E+00 0.806E+00   -.156E-03 0.691E-04 0.837E-03
   0.609E+01 0.297E+01 0.166E+02   -.486E+01 -.231E+01 -.173E+02   -.132E+01 -.748E+00 0.806E+00   -.158E-03 0.612E-04 0.836E-03
   0.609E+01 0.297E+01 0.166E+02   -.486E+01 -.231E+01 -.173E+02   -.132E+01 -.748E+00 0.806E+00   -.158E-03 0.691E-04 0.837E-03
   -.180E+02 -.513E-04 -.480E-04   0.186E+02 0.103E-04 0.352E-04   -.798E+00 -.151E-18 -.511E-19   -.308E-03 -.256E-05 -.159E-05
   -.180E+02 -.494E-04 -.446E-04   0.186E+02 -.369E-05 0.419E-05   -.798E+00 0.788E-19 0.210E-18   -.308E-03 0.256E-05 -.772E-06
   -.180E+02 -.513E-04 -.480E-04   0.186E+02 0.103E-04 0.352E-04   -.798E+00 -.126E-18 -.159E-18   -.311E-03 -.256E-05 -.159E-05
   -.180E+02 -.494E-04 -.446E-04   0.186E+02 -.369E-05 0.419E-05   -.798E+00 -.130E-18 0.199E-18   -.311E-03 0.256E-05 -.772E-06
   0.180E+02 -.507E-04 -.340E-04   -.186E+02 -.125E-05 -.163E-04   0.798E+00 0.256E-18 0.254E-18   0.312E-03 0.354E-05 0.831E-06
   0.180E+02 -.520E-04 -.305E-04   -.186E+02 0.136E-04 -.374E-04   0.798E+00 0.286E-18 -.152E-18   0.312E-03 -.355E-05 0.156E-05
   0.180E+02 -.507E-04 -.340E-04   -.186E+02 -.125E-05 -.163E-04   0.798E+00 0.245E-18 0.261E-18   0.308E-03 0.354E-05 0.831E-06
   0.180E+02 -.520E-04 -.305E-04   -.186E+02 0.136E-04 -.374E-04   0.798E+00 0.435E-18 -.440E-19   0.308E-03 -.355E-05 0.156E-05
   0.180E+02 -.494E-04 -.416E-04   -.186E+02 -.343E-05 0.103E-04   0.798E+00 0.276E-18 0.660E-19   0.309E-03 0.354E-05 -.815E-06
   0.180E+02 -.506E-04 -.451E-04   -.186E+02 0.114E-04 0.313E-04   0.798E+00 0.294E-18 -.227E-18   0.309E-03 -.355E-05 -.155E-05
   0.180E+02 -.494E-04 -.416E-04   -.186E+02 -.343E-05 0.103E-04   0.798E+00 0.519E-18 0.657E-19   0.311E-03 0.354E-05 -.815E-06
   0.180E+02 -.506E-04 -.451E-04   -.186E+02 0.114E-04 0.313E-04   0.798E+00 0.295E-18 -.224E-18   0.311E-03 -.355E-05 -.155E-05
   -.180E+02 -.523E-04 -.335E-04   0.186E+02 0.125E-04 -.413E-04   -.798E+00 0.556E-19 -.120E-18   -.309E-03 -.256E-05 0.160E-05
   -.180E+02 -.504E-04 -.369E-04   0.186E+02 -.151E-05 -.102E-04   -.798E+00 0.144E-19 0.165E-18   -.309E-03 0.256E-05 0.788E-06
   -.180E+02 -.523E-04 -.335E-04   0.186E+02 0.125E-04 -.413E-04   -.798E+00 -.297E-18 -.326E-18   -.311E-03 -.256E-05 0.160E-05
   -.180E+02 -.504E-04 -.369E-04   0.186E+02 -.151E-05 -.102E-04   -.798E+00 0.821E-19 0.135E-18   -.311E-03 0.256E-05 0.788E-06
 -----------------------------------------------------------------------------------------------
   0.541E-02 -.262E-02 -.834E-03   0.711E-13 0.553E-13 -.199E-14   -.111E-14 -.220E-15 0.777E-15   0.143E-06 -.218E-07 0.676E-08


 POSITION                                       TOTAL-FORCE (eV/Angst)
 -----------------------------------------------------------------------------------
      1.28484      0.16442      2.90321        -0.003727     -0.278790      0.205489
      1.28484      5.40163      2.90321        -0.003727     -0.278790      0.205489
      6.37732      0.16442      2.90321        -0.003727     -0.278790      0.205489
      6.37732      5.40163      2.90321        -0.003727     -0.278790      0.205489
      1.28484      2.45418      4.54114        -0.003727      0.278790     -0.205489
      1.28484      7.69139      4.54114        -0.003727      0.278790     -0.205489
      6.37732      2.45418      4.54114        -0.003727      0.278790     -0.205489
      6.37732      7.69139      4.54114        -0.003727      0.278790     -0.205489
      1.26140      2.78302      0.81897         0.003727     -0.278790     -0.205489
      1.26140      8.02023      0.81897         0.003727     -0.278790     -0.205489
      6.35389      2.78302      0.81897         0.003727     -0.278790     -0.205489
      6.35389      8.02023      0.81897         0.003727     -0.278790     -0.205489
      1.26140      5.07279      6.62539         0.003727      0.278790      0.205489
      1.26140     10.30999      6.62539         0.003727      0.278790      0.205489
      6.35389      5.07279      6.62539         0.003727      0.278790      0.205489
      6.35389     10.30999      6.62539         0.003727      0.278790      0.205489
      3.80765      5.07279      4.54114         0.003727      0.278790     -0.205489
      3.80765     10.30999      4.54114         0.003727      0.278790     -0.205489
      8.90013      5.07279      4.54114         0.003727      0.278790     -0.205489
      8.90013     10.30999      4.54114         0.003727      0.278790     -0.205489
      3.80765      2.78302      2.90321         0.003727     -0.278790      0.205489
      3.80765      8.02023      2.90321         0.003727     -0.278790      0.205489
      8.90013      2.78302      2.90321         0.003727     -0.278790      0.205489
      8.90013      8.02023      2.90321         0.003727     -0.278790      0.205489
      3.83108      2.45418      6.62539        -0.003727      0.278790      0.205489
      3.83108      7.69139      6.62539        -0.003727      0.278790      0.205489
      8.92357      2.45418      6.62539        -0.003727      0.278790      0.205489
      8.92357      7.69139      6.62539        -0.003727      0.278790      0.205489
      3.83108      0.16442      0.81897        -0.003727     -0.278790     -0.205489
      3.83108      5.40163      0.81897        -0.003727     -0.278790     -0.205489
      8.92357      0.16442      0.81897        -0.003727     -0.278790     -0.205489
      8.92357      5.40163      0.81897        -0.003727     -0.278790     -0.205489
      0.54527      0.53624      4.86972        -0.089291     -0.088706     -0.132018
      0.54527      5.77345      4.86972        -0.089291     -0.088706     -0.132018
      5.63775      0.53624      4.86972        -0.089291     -0.088706     -0.132018
      5.63775      5.77345      4.86972        -0.089291     -0.088706     -0.132018
      0.54527      2.08236      2.57464        -0.089291      0.088706      0.132018
      0.54527      7.31957      2.57464        -0.089291      0.088706      0.132018
      5.63775      2.08236      2.57464        -0.089291      0.088706      0.132018
      5.63775      7.31957      2.57464        -0.089291      0.088706      0.132018
      2.00098      3.15485      6.29682         0.089291     -0.088706      0.132018
      2.00098      8.39205      6.29682         0.089291     -0.088706      0.132018
      7.09346      3.15485      6.29682         0.089291     -0.088706      0.132018
      7.09346      8.39205      6.29682         0.089291     -0.088706      0.132018
      2.00098      4.70096      1.14754         0.089291      0.088706     -0.132018
      2.00098      9.93817      1.14754         0.089291      0.088706     -0.132018
      7.09346      4.70096      1.14754         0.089291      0.088706     -0.132018
      7.09346      9.93817      1.14754         0.089291      0.088706     -0.132018
      4.54722      4.70096      2.57464         0.089291      0.088706      0.132018
      4.54722      9.93817      2.57464         0.089291      0.088706      0.132018
      9.63970      4.70096      2.57464         0.089291      0.088706      0.132018
      9.63970      9.93817      2.57464         0.089291      0.088706      0.132018
      4.54722      3.15485      4.86972         0.089291     -0.088706     -0.132018
      4.54722      8.39205      4.86972         0.089291     -0.088706     -0.132018
      9.63970      3.15485      4.86972         0.089291     -0.088706     -0.132018
      9.63970      8.39205      4.86972         0.089291     -0.088706     -0.132018
      3.09151      2.08236      1.14754        -0.089291      0.088706     -0.132018
      3.09151      7.31957      1.14754        -0.089291      0.088706     -0.132018
      8.18399      2.08236      1.14754        -0.089291      0.088706     -0.132018
      8.18399      7.31957      1.14754        -0.089291      0.088706     -0.132018
      3.09151      0.53624      6.29682        -0.089291     -0.088706      0.132018
      3.09151      5.77345      6.29682        -0.089291     -0.088706      0.132018
      8.18399      0.53624      6.29682        -0.089291     -0.088706      0.132018
      8.18399      5.77345      6.29682        -0.089291     -0.088706      0.132018
      0.25558      1.30930      0.00000        -0.155229      0.000000     -0.000000
      0.25558      6.54651      0.00000        -0.155229      0.000000     -0.000000
      5.34807      1.30930      0.00000        -0.155229      0.000000     -0.000000
      5.34807      6.54651      0.00000        -0.155229      0.000000     -0.000000
      2.29066      3.92790      3.72218         0.155229      0.000000     -0.000000
      2.29066      9.16511      3.72218         0.155229      0.000000     -0.000000
      7.38314      3.92790      3.72218         0.155229      0.000000     -0.000000
      7.38314      9.16511      3.72218         0.155229      0.000000     -0.000000
      4.83690      3.92790      0.00000         0.155229      0.000000     -0.000000
      4.83690      9.16511      0.00000         0.155229      0.000000     -0.000000
      9.92939      3.92790      0.00000         0.155229      0.000000     -0.000000
      9.92939      9.16511      0.00000         0.155229      0.000000     -0.000000
      2.80182      1.30930      3.72218        -0.155229      0.000000     -0.000000
      2.80182      6.54651      3.72218        -0.155229      0.000000     -0.000000
      7.89431      1.30930      3.72218        -0.155229      0.000000     -0.000000
      7.89431      6.54651      3.72218        -0.155229      0.000000     -0.000000
 -----------------------------------------------------------------------------------
    total drift:                                0.005406     -0.002625     -0.000834


--------------------------------------------------------------------------------------------------------



  FREE ENERGIE OF THE ION-ELECTRON SYSTEM (eV)
  ---------------------------------------------------
  free  energy   TOTEN  =      -582.39202846 eV

  energy  without entropy=     -582.39377170  energy(sigma->0) =     -582.39260954



--------------------------------------------------------------------------------------------------------


    POTLOK:  cpu time      0.4249: real time      0.4431


--------------------------------------------------------------------------------------------------------


 writing wavefunctions
     LOOP+:  cpu time    987.2110: real time   1001.7129
    4ORBIT:  cpu time      0.0000: real time      0.0000

 total amount of memory used by VASP MPI-rank0   563800. kBytes
=======================================================================

   base      :      30000. kBytes
   nonlr-proj:       8351. kBytes
   fftplans  :      27208. kBytes
   grid      :      48340. kBytes
   one-center:        245. kBytes
   wavefun   :     449656. kBytes

  
  
 General timing and accounting informations for this job:
 ========================================================
  
                  Total CPU time used (sec):      997.815
                            User time (sec):      994.758
                          System time (sec):        3.057
                         Elapsed time (sec):     1098.929
  
                   Maximum memory used (kb):      754184.
                   Average memory used (kb):          N/A
  
                          Minor page faults:       389691
                          Major page faults:            3
                 Voluntary context switches:         1225
