80
Lattice="8.881099969339799 0.0 0.0 0.0 9.133489427870352 0.0 0.0 0.0 6.491339833402808" Properties=species:S:1:pos:R:3:forces:R:3 virial="331.24616 0.0 0.0 0.0 321.19686 0.0 0.0 0.0 304.05797" energy=-549.99729565 pbc="T T T"
Al       1.12036000       0.14337000       2.53155000      -0.03005400       0.66362700      -0.46751900
Al       1.12036000       4.71012000       2.53155000      -0.03005400       0.66362700      -0.46751900
Al       5.56091000       0.14337000       2.53155000      -0.03005400       0.66362700      -0.46751900
Al       5.56091000       4.71012000       2.53155000      -0.03005400       0.66362700      -0.46751900
Al       1.12036000       2.14000000       3.95979000      -0.03005400      -0.66362700       0.46751900
Al       1.12036000       6.70675000       3.95979000      -0.03005400      -0.66362700       0.46751900
Al       5.56091000       2.14000000       3.95979000      -0.03005400      -0.66362700       0.46751900
Al       5.56091000       6.70675000       3.95979000      -0.03005400      -0.66362700       0.46751900
Al       1.09992000       2.42674000       0.71412000       0.03005400       0.66362700       0.46751900
Al       1.09992000       6.99349000       0.71412000       0.03005400       0.66362700       0.46751900
Al       5.54047000       2.42674000       0.71412000       0.03005400       0.66362700       0.46751900
Al       5.54047000       6.99349000       0.71412000       0.03005400       0.66362700       0.46751900
Al       1.09992000       4.42337000       5.77722000       0.03005400      -0.66362700      -0.46751900
Al       1.09992000       8.99012000       5.77722000       0.03005400      -0.66362700      -0.46751900
Al       5.54047000       4.42337000       5.77722000       0.03005400      -0.66362700      -0.46751900
Al       5.54047000       8.99012000       5.77722000       0.03005400      -0.66362700      -0.46751900
Al       3.32019000       4.42337000       3.95979000       0.03005400      -0.66362700       0.46751900
Al       3.32019000       8.99012000       3.95979000       0.03005400      -0.66362700       0.46751900
Al       7.76074000       4.42337000       3.95979000       0.03005400      -0.66362700       0.46751900
Al       7.76074000       8.99012000       3.95979000       0.03005400      -0.66362700       0.46751900
Al       3.32019000       2.42674000       2.53155000       0.03005400       0.66362700      -0.46751900
Al       3.32019000       6.99349000       2.53155000       0.03005400       0.66362700      -0.46751900
Al       7.76074000       2.42674000       2.53155000       0.03005400       0.66362700      -0.46751900
Al       7.76074000       6.99349000       2.53155000       0.03005400       0.66362700      -0.46751900
Al       3.34063000       2.14000000       5.77722000      -0.03005400      -0.66362700      -0.46751900
Al       3.34063000       6.70675000       5.77722000      -0.03005400      -0.66362700      -0.46751900
Al       7.78118000       2.14000000       5.77722000      -0.03005400      -0.66362700      -0.46751900
Al       7.78118000       6.70675000       5.77722000      -0.03005400      -0.66362700      -0.46751900
Al       3.34063000       0.14337000       0.71412000      -0.03005400       0.66362700       0.46751900
Al       3.34063000       4.71012000       0.71412000      -0.03005400       0.66362700       0.46751900
Al       7.78118000       0.14337000       0.71412000      -0.03005400       0.66362700       0.46751900
Al       7.78118000       4.71012000       0.71412000      -0.03005400       0.66362700       0.46751900
O        0.47546000       0.46759000       4.24630000       0.21646100       0.18299600       0.28456100
O        0.47546000       5.03434000       4.24630000       0.21646100       0.18299600       0.28456100
O        4.91601000       0.46759000       4.24630000       0.21646100       0.18299600       0.28456100
O        4.91601000       5.03434000       4.24630000       0.21646100       0.18299600       0.28456100
O        0.47546000       1.81578000       2.24504000       0.21646100      -0.18299600      -0.28456100
O        0.47546000       6.38252000       2.24504000       0.21646100      -0.18299600      -0.28456100
O        4.91601000       1.81578000       2.24504000       0.21646100      -0.18299600      -0.28456100
O        4.91601000       6.38252000       2.24504000       0.21646100      -0.18299600      -0.28456100
O        1.74481000       2.75097000       5.49071000      -0.21646100       0.18299600      -0.28456100
O        1.74481000       7.31771000       5.49071000      -0.21646100       0.18299600      -0.28456100
O        6.18536000       2.75097000       5.49071000      -0.21646100       0.18299600      -0.28456100
O        6.18536000       7.31771000       5.49071000      -0.21646100       0.18299600      -0.28456100
O        1.74481000       4.09915000       1.00063000      -0.21646100      -0.18299600       0.28456100
O        1.74481000       8.66590000       1.00063000      -0.21646100      -0.18299600       0.28456100
O        6.18536000       4.09915000       1.00063000      -0.21646100      -0.18299600       0.28456100
O        6.18536000       8.66590000       1.00063000      -0.21646100      -0.18299600       0.28456100
O        3.96509000       4.09915000       2.24504000      -0.21646100      -0.18299600      -0.28456100
O        3.96509000       8.66590000       2.24504000      -0.21646100      -0.18299600      -0.28456100
O        8.40564000       4.09915000       2.24504000      -0.21646100      -0.18299600      -0.28456100
O        8.40564000       8.66590000       2.24504000      -0.21646100      -0.18299600      -0.28456100
O        3.96509000       2.75097000       4.24630000      -0.21646100       0.18299600       0.28456100
O        3.96509000       7.31771000       4.24630000      -0.21646100       0.18299600       0.28456100
O        8.40564000       2.75097000       4.24630000      -0.21646100       0.18299600       0.28456100
O        8.40564000       7.31771000       4.24630000      -0.21646100       0.18299600       0.28456100
O        2.69574000       1.81578000       1.00063000       0.21646100      -0.18299600       0.28456100
O        2.69574000       6.38252000       1.00063000       0.21646100      -0.18299600       0.28456100
O        7.13629000       1.81578000       1.00063000       0.21646100      -0.18299600       0.28456100
O        7.13629000       6.38252000       1.00063000       0.21646100      -0.18299600       0.28456100
O        2.69574000       0.46759000       5.49071000       0.21646100       0.18299600      -0.28456100
O        2.69574000       5.03434000       5.49071000       0.21646100       0.18299600      -0.28456100
O        7.13629000       0.46759000       5.49071000       0.21646100       0.18299600      -0.28456100
O        7.13629000       5.03434000       5.49071000       0.21646100       0.18299600      -0.28456100
O        0.22286000       1.14169000       0.00000000       0.31431800      -0.00000000      -0.00000000
O        0.22286000       5.70843000       0.00000000       0.31431800      -0.00000000      -0.00000000
O        4.66341000       1.14169000       0.00000000       0.31431800      -0.00000000      -0.00000000
O        4.66341000       5.70843000       0.00000000       0.31431800      -0.00000000      -0.00000000
O        1.99741000       3.42506000       3.24567000      -0.31431800      -0.00000000      -0.00000000
O        1.99741000       7.99180000       3.24567000      -0.31431800      -0.00000000      -0.00000000
O        6.43796000       3.42506000       3.24567000      -0.31431800      -0.00000000      -0.00000000
O        6.43796000       7.99180000       3.24567000      -0.31431800      -0.00000000      -0.00000000
O        4.21769000       3.42506000       0.00000000      -0.31431800      -0.00000000      -0.00000000
O        4.21769000       7.99180000       0.00000000      -0.31431800      -0.00000000      -0.00000000
O        8.65824000       3.42506000       0.00000000      -0.31431800      -0.00000000      -0.00000000
O        8.65824000       7.99180000       0.00000000      -0.31431800      -0.00000000      -0.00000000
O        2.44314000       1.14169000       3.24567000       0.31431800      -0.00000000      -0.00000000
O        2.44314000       5.70843000       3.24567000       0.31431800      -0.00000000      -0.00000000
O        6.88369000       1.14169000       3.24567000       0.31431800      -0.00000000      -0.00000000
O        6.88369000       5.70843000       3.24567000       0.31431800      -0.00000000      -0.00000000
78
Lattice="8.722910936054532 0.0 0.0 0.0 8.973589262315187 0.0 0.0 0.0 6.351365668128903" Properties=species:S:1:pos:R:3:forces:R:3 virial="429.58971 -1.86543 -3.99533 -1.86543 413.8974 -0.5521 -3.99533 -0.5521 394.84605" energy=-506.90433025 pbc="T T T"
Al       1.11321000       0.14133000       2.46544000       0.39455500       0.85618700      -0.49203900
Al       1.06945000       4.63741000       2.44701000       0.40886200       1.00612900      -0.67116900
Al       5.46656000       0.17146000       2.46593000      -0.22612500       0.92328200      -0.76330300
Al       1.08153000       2.08191000       3.87912000       0.08063700      -1.12336000       0.75298700
Al       1.11754000       6.58832000       3.85293000      -0.01400700      -0.67019100       0.41393800
Al       5.44726000       2.15203000       3.85477000      -0.66453600      -1.34960800       0.70609300
Al       5.53784000       6.70342000       3.69692000      -1.68657100      -2.35947000       2.07384800
Al       1.07175000       2.38299000       0.68579000       0.27522700       0.96341100       0.77659600
Al       1.10102000       6.85646000       0.65232000       0.39130800       0.73815000       0.77045800
Al       5.46014000       2.35690000       0.79335000      -0.36826200       0.29530600      -0.08384600
Al       5.46196000       6.84715000       0.67624000       0.17363500       0.58219800      -0.49143400
Al       1.09179000       4.32412000       5.63563000       0.43879000      -0.71735300      -0.87726900
Al       1.11538000       8.80690000       5.62247000       0.11459100      -1.10440300      -0.77700000
Al       5.56423000       4.22095000       5.89122000      -1.69002000       0.39652800      -3.78809900
Al       5.48484000       8.81463000       5.63552000      -0.19493800      -0.66392500      -0.72763700
Al       3.09934000       4.26615000       3.78629000       2.85912200       1.03768500       2.07657200
Al       3.28522000       8.86198000       3.83291000       0.35923700      -1.97372200       0.93597700
Al       7.56774000       4.39282000       3.84309000       1.16283200      -0.97380300       0.98104300
Al       7.65827000       8.87355000       3.84906000       0.31647400      -0.72504100       0.49152600
Al       3.24683000       2.40143000       2.43539000      -0.03644500       0.62276400       0.04454600
Al       3.28438000       6.86145000       2.44943000      -0.86907600       0.98070100      -0.58159200
Al       7.62060000       2.41322000       2.48667000       0.20718100       1.03349100      -1.10424100
Al       7.65584000       6.90081000       2.45075000      -0.15098100       0.84844800      -0.77898800
Al       3.30282000       2.10404000       5.68376000       0.09247500      -1.01758400      -0.92287800
Al       3.32170000       6.53592000       5.61813000      -0.23473900      -0.82727800      -0.30392000
Al       7.64978000       2.09860000       5.66430000      -0.01256600      -0.87747800      -0.37661900
Al       7.65236000       6.57811000       5.62361000       0.10761100      -1.10707400      -0.60780300
Al       3.28799000       0.12241000       0.68582000      -0.13382800       0.95069700       0.60730500
Al       3.32832000       4.61640000       0.78365000       0.29750200       1.58749400      -0.57532100
Al       7.65098000       0.14536000       0.69998000       0.06925100       0.54710700       0.50676000
Al       7.64409000       4.63266000       0.74738000       0.49000800       1.60709500       0.01372100
O        0.48928000       0.45034000       4.14376000       0.31752100       0.04344800       0.55575800
O        0.45480000       4.95512000       4.14234000      -0.09206500       0.09575200       0.46632000
O        4.82250000       0.45508000       4.17002000       0.71676600       0.62466800       0.47641500
O        0.46098000       1.77516000       2.18463000       0.15317900      -0.30088700      -0.32051000
O        0.48513000       6.28180000       2.16019000       0.39778600      -0.12002400      -0.32093900
O        4.81885000       1.79796000       2.24093000      -0.18440000      -0.35375100      -0.09678500
O        4.82991000       6.42089000       2.14825000       1.41218500      -2.94152300      -0.27725500
O        1.73330000       2.68468000       5.36533000      -0.20731100       0.16789900      -0.46217500
O        1.75484000       7.15661000       5.34685000      -0.09653900       0.31315700      -0.38284900
O        6.07899000       2.67296000       5.35814000      -0.30912300      -0.51278700      -0.17550700
O        6.10897000       7.19577000       5.32170000      -0.65506000      -0.14846300      -0.73628500
O        1.71547000       4.03953000       0.95049000      -0.07385500      -0.23438800       0.31591400
O        1.74422000       8.49581000       0.94974000      -0.30094800      -0.35474600       0.35630400
O        6.19889000       3.87453000       0.97409000      -0.34738100       0.49923900       4.96949300
O        6.09776000       8.51658000       0.94363000      -0.28515400      -0.51828100       0.48410900
O        3.78279000       4.02018000       2.27097000       3.86775500       1.42584900      -0.26669900
O        3.90457000       8.56722000       2.18267000      -0.39547600      -0.55550400      -0.44961900
O        8.25681000       4.05981000       2.21711000      -0.42006000      -0.66612600      -0.11907000
O        8.29662000       8.53561000       2.17142000      -0.26610400      -0.20161600      -0.40779200
O        3.91103000       2.79330000       4.20462000      -0.02291700       0.24502500       0.33536500
O        3.95856000       7.04566000       4.12297000      -0.96145700       0.80108300       0.43970300
O        8.26216000       2.70604000       4.17517000      -0.67814600       0.91920100       0.23252600
O        8.30442000       7.23727000       4.14642000      -0.46223800       0.48440700       0.41295500
O        2.63662000       1.77551000       0.96941000       0.04872000      -0.63009900       0.36228100
O        2.68504000       6.24376000       0.93531000      -0.01661400       0.08654400       0.40436000
O        7.02293000       1.74281000       0.98948000       0.38111300      -0.14934300       0.45266300
O        7.02331000       6.26515000       0.97612000       0.21131300      -0.18524400       0.42225400
O        2.66611000       0.43769000       5.37198000       0.28024900       0.46518200      -0.28819400
O        2.70684000       4.90273000       5.30114000       0.36148100       0.00918900       0.83403600
O        7.03087000       0.45643000       5.37349000       0.12799400       0.24789700      -0.22562700
O        6.98195000       4.92242000       5.37535000       0.51819700       0.46939100      -0.32295700
O        0.24221000       1.09234000       6.33735000       0.25590500       0.10366400      -0.00593800
O        0.22696000       5.57948000       6.32589000       0.11078700      -0.04287700       0.05373200
O        4.58759000       1.11907000       0.03080000       0.55068900       0.12081200      -0.08180800
O        4.65171000       5.54135000       6.22007000      -0.01946500       0.54621300      -0.72626200
O        1.87029000       3.34466000       3.16070000      -1.03638300      -0.65358200      -0.69757000
O        2.01327000       7.85735000       3.16343000      -0.75154400      -0.04411800       0.09477500
O        6.36371000       3.38632000       3.23902000      -2.87001000       2.56186200      -1.49271900
O        6.39217000       7.94163000       3.13012000       0.19764600       0.49661400      -0.15899900
O        4.16901000       3.34768000       0.08826000      -0.65520800      -0.27443400      -0.05396100
O        4.17035000       7.81016000       6.31626000      -0.25740100       0.02642100      -0.09528400
O        8.51206000       3.37282000       0.01738000      -0.65818900       0.25198800      -0.06165800
O        8.53870000       7.83471000       6.33499000      -0.49282000      -0.09369800      -0.06690800
O        2.41092000       1.15402000       3.18571000       0.31863600       0.02994000       0.08104000
O        2.37054000       5.61354000       3.14179000       0.68380400       0.25972100      -0.15412500
O        6.75576000       1.15536000       3.18047000       0.37229200       0.05012700       0.22555600
O        6.79486000       5.72997000       3.29250000      -0.72535700      -1.85018800      -0.75627400
77
Lattice="8.76573471382143 0.0 0.0 0.0 9.043449490047667 0.0 0.0 0.0 6.375215316610441" Properties=species:S:1:pos:R:3:forces:R:3 virial="394.80649 0.4482 -4.12761 0.4482 374.38335 -2.38741 -4.12761 -2.38741 356.93411" energy=-500.87922364 pbc="T T T"
Al       1.13530000       0.13001000       2.48014000       0.01711400       0.87215300      -0.34855100
Al       1.13376000       4.64149000       2.51941000      -0.60525100       1.10376400      -1.04504100
Al       5.49728000       0.15442000       2.47844000      -0.08457700       0.87831100      -0.70587400
Al       1.10461000       2.08076000       3.91323000      -0.05494700      -1.22491200       0.67969600
Al       1.12061000       6.62910000       3.87917000      -0.19300300      -0.74448300       0.71123200
Al       5.49204000       2.12209000       3.88118000       0.26177900      -1.23175800       0.54336300
Al       5.55331000       6.74911000       3.71832000      -1.58095200      -2.26363800       1.87546600
Al       1.10305000       2.42135000       0.69444000      -0.12732900       0.80295400       0.50861600
Al       1.09939000       6.91061000       0.65860000       0.14840500       0.75208600       0.52635400
Al       5.47965000       2.36584000       0.79718000      -0.38037500       0.72759600      -0.22449000
Al       5.46668000       6.89318000       0.66423000       0.20655100       0.58579400      -0.27208500
Al       1.08295000       4.36424000       5.60542000      -0.31312000      -1.37076600      -0.31252200
Al       1.11732000       8.87679000       5.65350000      -0.15214000      -0.73750200      -0.66886400
Al       5.56918000       4.27052000       5.87767000      -1.39922900       0.26519500      -3.43432700
Al       5.50132000       8.87139000       5.65862000      -0.07126100      -0.66875700      -0.50047900
Al       3.30252000       8.91725000       3.84224000       0.35516800      -1.63615000       0.88983900
Al       7.59769000       4.41300000       3.83939000       0.85216300      -0.92568500       0.98763500
Al       7.69240000       8.92551000       3.86199000       0.22427300      -0.77943200       0.54434200
Al       3.27329000       2.50417000       2.57025000       0.53510200      -0.39858500      -0.57301600
Al       3.30162000       6.87513000       2.49343000      -0.24820700       1.16798800      -0.50249100
Al       7.66243000       2.42135000       2.50035000       0.15134600       0.90508000      -0.99984300
Al       7.68657000       6.94263000       2.45399000      -0.16265800       0.76016600      -0.69700700
Al       3.29319000       2.09010000       5.67336000      -0.13817800      -0.74137900       0.03317600
Al       3.31622000       6.60481000       5.59148000       0.08221400      -0.33769300       0.08784600
Al       7.69309000       2.10750000       5.69042000      -0.13116800      -0.90385400      -0.43920700
Al       7.67869000       6.61897000       5.65176000      -0.06164100      -0.96645900      -0.61690700
Al       3.30492000       0.14618000       0.71012000       0.00963700       0.67286400       0.47000300
Al       3.23960000       4.70815000       0.63069000       0.62958200       0.96340400      -0.00924000
Al       7.69151000       0.14584000       0.70676000       0.06735200       0.67055900       0.58382800
Al       7.69213000       4.66252000       0.75454000      -0.00842100       1.36991400       0.02167600
O        0.49194000       0.44747000       4.17158000       0.34947800       0.01474000       0.45836600
O        0.43791000       4.97678000       4.14490000      -0.20769200       0.44999100       0.28197400
O        4.87706000       0.38958000       4.18475000       0.69724300       0.65425500       0.33067300
O        0.45338000       1.77102000       2.17423000       0.23150100      -0.44951500      -0.09231600
O        0.47467000       6.32238000       2.16797000       0.63815600      -0.62744900      -0.18234100
O        4.84718000       1.80146000       2.24836000      -0.65593100      -0.40421300      -0.03971700
O        4.85942000       6.46953000       2.15799000       1.29333300      -2.75479100      -0.37876800
O        1.73617000       2.72342000       5.37117000      -0.01667900       0.41449700      -0.22860300
O        1.74111000       7.25072000       5.37364000      -0.03002600       0.22643600      -0.35584200
O        6.11676000       2.70033000       5.38598000      -0.34881400      -0.37971100      -0.09703000
O        6.13012000       7.24321000       5.33756000      -0.53613000      -0.03672700      -0.61437500
O        1.68917000       4.07409000       0.96624000      -0.37969000       0.08243400       0.10558700
O        1.74215000       8.57527000       0.95246000      -0.20202900      -0.47003500       0.24150700
O        6.20114000       3.90842000       0.96474000      -0.26112500       0.63840000       4.28311000
O        6.12395000       8.57661000       0.94142000      -0.24825300      -0.56812000       0.43419100
O        3.86393000       3.99147000       1.98524000       2.55159700       1.42091600       2.35368200
O        3.92691000       8.61606000       2.18401000      -0.57233400      -0.75916800      -0.43732400
O        8.29874000       4.07612000       2.22728000       0.22556200      -0.40654100      -0.22611500
O        8.33724000       8.59457000       2.17957000      -0.24508100      -0.27292200      -0.41984100
O        3.95078000       2.60250000       4.21873000      -1.31244200       2.81349100       0.09690800
O        3.96546000       7.12760000       4.12379000      -0.59954600       0.77845000       0.46734700
O        8.31043000       2.70328000       4.18545000      -0.54727000       0.90573800       0.23916500
O        8.33483000       7.26827000       4.16442000      -0.37273500       0.47146300       0.31819800
O        2.66342000       1.80366000       0.97121000       0.63510900      -0.06711100       1.27372600
O        2.67330000       6.31680000       0.99266000       0.25918900       0.32470600      -0.00596700
O        7.05911000       1.75982000       0.99588000       0.30423000      -0.16145100       0.37738900
O        7.03987000       6.30065000       0.97638000       0.10711700      -0.22047500       0.41254400
O        2.67869000       0.44058000       5.39312000       0.25421900       0.17263700      -0.27934000
O        2.58100000       5.07585000       5.46277000       0.75921500      -0.94343800      -3.56467100
O        7.06656000       0.45530000       5.39939000       0.08809400       0.25455800      -0.24864000
O        6.99938000       4.95593000       5.37662000       0.71952400       0.51912700      -0.20827300
O        0.24698000       1.11000000       6.36658000       0.32957200       0.13357400       0.05399300
O        0.20301000       5.62707000       6.34194000       0.46540200      -0.20416700       0.01649300
O        4.62095000       1.12814000       0.02964000       0.26736900       0.14829700      -0.24743700
O        4.65146000       5.59535000       6.20814000      -0.12782700       0.46624000      -0.65068900
O        1.85797000       3.27757000       3.06454000       0.81175200       1.36244400       0.61403300
O        2.01387000       7.90519000       3.17939000      -0.64639100      -0.17249700      -0.02030200
O        6.39599000       3.38205000       3.25350000      -2.88732400       2.30206900      -1.35052700
O        6.42898000       7.98226000       3.13130000       0.09857700       0.50755000      -0.17555100
O        4.16892000       3.39053000       0.00644000      -0.70442900      -0.19892900       0.19701700
O        4.17043000       7.86875000       6.33644000      -0.42980200       0.14962800       0.02016500
O        8.54701000       3.40039000       0.00590000      -0.33223700       0.23189300      -0.02624600
O        8.55416000       7.91495000      -0.01404000      -0.32553500      -0.12813300      -0.08547400
O        2.41983000       1.12628000       3.18711000       0.59197800       0.37045400      -0.40286100
O        2.35660000       5.65091000       3.14563000       2.73934600      -2.48884900       1.33880100
O        6.80089000       1.14485000       3.19353000       0.45034900      -0.00776800       0.05490900
O        6.81271000       5.76056000       3.29615000      -0.70682000      -1.65875200      -0.74465700
79
Lattice="8.679926316246721 0.0 0.0 0.0 8.92139630609314 0.0 0.0 0.0 6.326235988420786" Properties=species:S:1:pos:R:3:forces:R:3 virial="457.95037 2.22786 -0.59391 2.22786 445.28887 -2.54136 -0.59391 -2.54136 420.39741" energy=-505.56599764 pbc="T T T"
Al       1.09094000       0.14287000       2.45856000      -0.01905100       0.97110500      -0.66040200
Al       1.10009000       4.60741000       2.47435000       0.00892600       1.23582600      -0.81607700
Al       5.42912000       0.11919000       2.46930000      -0.31525600       1.13065600      -0.86065900
Al       1.09069000       2.08621000       3.86776000      -0.06179300      -1.17015400       0.61902100
Al       1.09195000       6.54740000       3.86598000      -0.11676100      -0.85369300       0.61949600
Al       5.40062000       2.10947000       3.80675000      -0.06642800      -0.90443800       0.62177300
Al       5.42005000       6.45451000       3.78056000      -0.24100300       0.05035300       1.11034800
Al       1.07525000       2.36629000       0.68141000       0.10065200       0.86487600       0.78229800
Al       1.06810000       6.82315000       0.69000000       0.00192500       1.05942700       0.63649700
Al       5.40117000       2.36482000       0.74718000      -0.07114600       0.33742300      -0.05093600
Al       5.42296000       6.82512000       0.70931000       0.33736900       0.91316500      -0.00436700
Al       1.07724000       4.32656000       5.62579000       0.05175700      -1.06234400      -0.60979000
Al       1.06309000       8.77758000       5.63222000       0.01030800      -1.02610700      -0.75964300
Al       5.43322000       4.29317000       5.66646000      -0.11914500      -0.71782300      -0.50348500
Al       5.40299000       8.76029000       5.61473000       0.00134100      -0.80263500      -0.61801300
Al       3.30245000       4.33906000       3.82712000      -0.41538500      -0.72248400       1.00789200
Al       3.23633000       8.78312000       3.86635000      -0.03967200      -0.95779500       0.55386900
Al       7.55879000       4.32100000       3.82256000       0.54886600      -1.18174600       1.15752000
Al       7.56384000       8.78280000       3.86227000       0.27644800      -1.03924600       0.48937600
Al       3.22105000       2.37124000       2.46274000       0.00268300       0.48177100      -0.41956300
Al       3.20737000       6.85223000       2.45934000      -0.40464000       1.04455300      -0.56751700
Al       7.59205000       2.35882000       2.43748000       0.35443400       0.87462500      -0.96746800
Al       7.58900000       6.85241000       2.44451000       0.10777100       1.27691700      -0.76187700
Al       3.27056000       2.09969000       5.62957000      -0.09350300      -1.12007200      -0.62998000
Al       3.25893000       6.54326000       5.62769000       0.25033500      -1.13440400      -0.53268100
Al       7.59344000       2.08762000       5.62479000      -0.06970900      -0.99475500      -0.56382800
Al       7.58093000       6.52965000       5.62809000       0.15168200      -0.97606800      -0.48343800
Al       3.26030000       0.13985000       0.67503000      -0.00852700       0.92711000       0.60452500
Al       3.27920000       4.59329000       0.72049000      -0.17587100       1.11105700       0.22778400
Al       7.59425000       0.12933000       0.67786000       0.15251700       0.71154800       0.65198800
Al       7.60327000       4.58435000       0.72916000       0.28728300       1.45072000       0.36256300
O        0.45595000       0.45316000       4.13260000       0.30249400       0.26603500       0.39162600
O        0.45739000       4.92579000       4.14497000      -0.06297100       0.11059600       0.36836700
O        4.79748000       0.46011000       4.12864000       0.45564200       0.46559600       0.53087200
O        4.77792000       4.95389000       4.27706000       0.83365100      -0.15066100      -1.28981600
O        0.46273000       1.77111000       2.17681000       0.46545000      -0.22192900      -0.30981700
O        0.46353000       6.24905000       2.19293000       0.35038200      -0.35286200      -0.34838200
O        4.78966000       1.77993000       2.19920000      -0.04464800      -0.67520200      -0.41803200
O        4.76130000       6.40316000       2.17519000       1.32328100      -2.67194200      -0.26539500
O        1.70532000       2.68312000       5.35525000      -0.25061500       0.34802800      -0.46434500
O        1.69378000       7.15006000       5.35336000      -0.08858500       0.23832000      -0.35798300