80
Lattice="8.881099700927734 0.0 0.0 0.0 9.133489608764648 0.0 0.0 0.0 6.491339683532715" Properties=species:S:1:pos:R:3:energies:R:1:forces:R:3 energy=-547.939697265625 stress="-0.7136602401733398 -3.8674420466122683e-07 -2.054398038353611e-07 -3.8674420466122683e-07 -0.6508830785751343 6.595274726350908e-08 -2.054398038353611e-07 6.595274726350908e-08 -0.6301091313362122" pbc="T T T"
Al       1.12036002       0.14337000       2.53154993      -7.03426170      -0.05029586       0.66871166      -0.46457148
Al       1.12036002       4.71012020       2.53154993      -7.03426218      -0.05028930       0.66867000      -0.46458527
Al       5.56091022       0.14337000       2.53154993      -7.03426456      -0.05030176       0.66875106      -0.46454135
Al       5.56091022       4.71012020       2.53154993      -7.03426456      -0.05031250       0.66870087      -0.46454272
Al       1.12036002       2.14000010       3.95978999      -7.03426647      -0.05036260      -0.66875708       0.46460494
Al       1.12036002       6.70674992       3.95978999      -7.03425360      -0.05036053      -0.66867107       0.46459529
Al       5.56091022       2.14000010       3.95978999      -7.03426695      -0.05045494      -0.66878051       0.46461958
Al       5.56091022       6.70674992       3.95978999      -7.03425646      -0.05034684      -0.66871911       0.46459222
Al       1.09992003       2.42673993       0.71411997      -7.03425503       0.05025721       0.66882646       0.46452048
Al       1.09992003       6.99349022       0.71411997      -7.03426981       0.05036294       0.66880929       0.46453682
Al       5.54047012       2.42673993       0.71411997      -7.03425694       0.05029017       0.66883880       0.46450928
Al       5.54047012       6.99349022       0.71411997      -7.03427315       0.05032367       0.66877991       0.46453446
Al       1.09992003       4.42336988       5.77721977      -7.03426361       0.05034601      -0.66872412      -0.46461359
Al       1.09992003       8.99011993       5.77721977      -7.03426647       0.05027841      -0.66872305      -0.46452790
Al       5.54047012       4.42336988       5.77721977      -7.03426504       0.05029223      -0.66873044      -0.46461484
Al       5.54047012       8.99011993       5.77721977      -7.03426647       0.05029996      -0.66872549      -0.46456850
Al       3.32018995       4.42336988       3.95978999      -7.03426123       0.05034062      -0.66880441       0.46461034
Al       3.32018995       8.99011993       3.95978999      -7.03426170       0.05034734      -0.66874731       0.46455288
Al       7.76073980       4.42336988       3.95978999      -7.03425837       0.05033936      -0.66877478       0.46455389
Al       7.76073980       8.99011993       3.95978999      -7.03425980       0.05033411      -0.66874403       0.46455672
Al       3.32018995       2.42673993       2.53154993      -7.03425026       0.05035527       0.66887569      -0.46449172
Al       3.32018995       6.99349022       2.53154993      -7.03426647       0.05030609       0.66881663      -0.46452403
Al       7.76073980       2.42673993       2.53154993      -7.03425026       0.05042127       0.66888255      -0.46446842
Al       7.76073980       6.99349022       2.53154993      -7.03426504       0.05034572       0.66880906      -0.46454519
Al       3.34063005       2.14000010       5.77721977      -7.03427124      -0.05031507      -0.66873866      -0.46467972
Al       3.34063005       6.70674992       5.77721977      -7.03425884      -0.05033252      -0.66856438      -0.46457937
Al       7.78117990       2.14000010       5.77721977      -7.03427124      -0.05031592      -0.66876686      -0.46468106
Al       7.78117990       6.70674992       5.77721977      -7.03425884      -0.05035533      -0.66858464      -0.46458268
Al       3.34063005       0.14337000       0.71411997      -7.03426504      -0.05036387       0.66855896       0.46456364
Al       3.34063005       4.71012020       0.71411997      -7.03426790      -0.05034258       0.66870642       0.46461785
Al       7.78117990       0.14337000       0.71411997      -7.03426647      -0.05032216       0.66859514       0.46452317
Al       7.78117990       4.71012020       0.71411997      -7.03427124      -0.05029147       0.66866487       0.46461806
O        0.47545999       0.46759000       4.24630022      -6.82623291       0.20648697       0.20244642       0.27757987
O        0.47545999       5.03433990       4.24630022      -6.82624054       0.20642863       0.20245476       0.27744603
O        4.91600990       0.46759000       4.24630022      -6.82623863       0.20650357       0.20252703       0.27754137
O        4.91600990       5.03433990       4.24630022      -6.82623386       0.20642787       0.20248200       0.27748927
O        0.47545999       1.81578004       2.24503994      -6.82621765       0.20640849      -0.20238729      -0.27750549
O        0.47545999       6.38252020       2.24503994      -6.82622433       0.20641372      -0.20248216      -0.27756402
O        4.91600990       1.81578004       2.24503994      -6.82621574       0.20646805      -0.20238779      -0.27750599
O        4.91600990       6.38252020       2.24503994      -6.82622385       0.20642471      -0.20246488      -0.27759317
O        1.74480999       2.75096989       5.49070978      -6.82622480      -0.20652767       0.20244908      -0.27747986
O        1.74480999       7.31770992       5.49070978      -6.82622623      -0.20651497       0.20253669      -0.27744544
O        6.18535995       2.75096989       5.49070978      -6.82622576      -0.20658308       0.20243847      -0.27746344
O        6.18535995       7.31770992       5.49070978      -6.82622766      -0.20650989       0.20256092      -0.27742630
O        1.74480999       4.09915018       1.00063002      -6.82622814      -0.20652890      -0.20253253       0.27752641
O        1.74480999       8.66590023       1.00063002      -6.82622719      -0.20645066      -0.20257425       0.27747834
O        6.18535995       4.09915018       1.00063002      -6.82623053      -0.20658362      -0.20255256       0.27747315
O        6.18535995       8.66590023       1.00063002      -6.82622480      -0.20644243      -0.20255266       0.27740651
O        3.96509004       4.09915018       2.24503994      -6.82622480      -0.20642813      -0.20250109      -0.27759570
O        3.96509004       8.66590023       2.24503994      -6.82622814      -0.20642720      -0.20252714      -0.27755466
O        8.40563965       4.09915018       2.24503994      -6.82622623      -0.20644401      -0.20253211      -0.27750731
O        8.40563965       8.66590023       2.24503994      -6.82622576      -0.20644373      -0.20250720      -0.27758011
O        3.96509004       2.75096989       4.24630022      -6.82622719      -0.20640779       0.20237759       0.27751189
O        3.96509004       7.31770992       4.24630022      -6.82622433      -0.20643310       0.20248277       0.27750090
O        8.40563965       2.75096989       4.24630022      -6.82622957      -0.20639162       0.20244306       0.27745441
O        8.40563965       7.31770992       4.24630022      -6.82622719      -0.20638910       0.20249173       0.27753347
O        2.69573998       1.81578004       1.00063002      -6.82621908       0.20656191      -0.20240240       0.27752101
O        2.69573998       6.38252020       1.00063002      -6.82622623       0.20654555      -0.20252988       0.27748904
O        7.13629007       1.81578004       1.00063002      -6.82622766       0.20651022      -0.20246160       0.27751705
O        7.13629007       6.38252020       1.00063002      -6.82622576       0.20653199      -0.20244344       0.27746320
O        2.69573998       0.46759000       5.49070978      -6.82623100       0.20652047       0.20254253      -0.27754813
O        2.69573998       5.03433990       5.49070978      -6.82623434       0.20651411       0.20243374      -0.27746615
O        7.13629007       0.46759000       5.49070978      -6.82623577       0.20647143       0.20243430      -0.27741262
O        7.13629007       5.03433990       5.49070978      -6.82623243       0.20650151       0.20247938      -0.27741680
O        0.22285999       1.14169002       0.00000000      -6.52525806       0.31549507       0.00001066      -0.00002808
O        0.22285999       5.70842981       0.00000000      -6.52525902       0.31550345      -0.00000679       0.00004657
O        4.66341019       1.14169002       0.00000000      -6.52525997       0.31555402       0.00004140      -0.00003200
O        4.66341019       5.70842981       0.00000000      -6.52526045       0.31550843      -0.00002738       0.00006213
O        1.99741006       3.42506003       3.24567008      -6.52526045      -0.31554151      -0.00003869      -0.00007578
O        1.99741006       7.99179983       3.24567008      -6.52526140      -0.31558558       0.00000052       0.00000120
O        6.43796015       3.42506003       3.24567008      -6.52525711      -0.31558520      -0.00004680      -0.00008706
O        6.43796015       7.99179983       3.24567008      -6.52525854      -0.31560770      -0.00000096      -0.00000886
O        4.21768999       3.42506003       0.00000000      -6.52526188      -0.31542718      -0.00006304       0.00009319
O        4.21768999       7.99179983       0.00000000      -6.52526188      -0.31554559      -0.00005994       0.00007048
O        8.65824032       3.42506003       0.00000000      -6.52526331      -0.31544459      -0.00006365       0.00011590
O        8.65824032       7.99179983       0.00000000      -6.52525806      -0.31555679       0.00000405       0.00004534
O        2.44314003       1.14169002       3.24567008      -6.52526474       0.31552023       0.00003572       0.00002231
O        2.44314003       5.70842981       3.24567008      -6.52526140       0.31556904       0.00000867      -0.00004461
O        6.88368988       1.14169002       3.24567008      -6.52526617       0.31551304       0.00001163      -0.00002025
O        6.88368988       5.70842981       3.24567008      -6.52526140       0.31554133       0.00001165      -0.00001851
78
Lattice="8.72291088104248 0.0 0.0 0.0 8.973588943481445 0.0 0.0 0.0 6.351365566253662" Properties=species:S:1:pos:R:3:energies:R:1:forces:R:3 energy=-507.0812683105469 stress="-0.9668682217597961 0.0025632015895098448 0.004949685651808977 0.0025632015895098448 -0.877087414264679 0.0054312595166265965 0.004949685651808977 0.0054312595166265965 -0.858090877532959" pbc="T T T"
Al       1.11320996       0.14133000       2.46544003      -6.79088640       0.43602607       0.95259869      -0.53133017
Al       1.06945002       4.63741016       2.44701004      -6.61605024       0.41510591       1.02895224      -0.60113525
Al       5.46655989       0.17146000       2.46592999      -6.72273445      -0.23045094       0.93115783      -0.68771130
Al       1.08152997       2.08190989       3.87912011      -6.64793491      -0.18220082      -1.17164195       0.70746613
Al       1.11754000       6.58831978       3.85293007      -6.73313046      -0.22097109      -0.63669807       0.46981889
Al       5.44725990       2.15202999       3.85476995      -6.70699596      -0.61122447      -1.28527772       0.71112972
Al       5.53783989       6.70342016       3.69691992      -6.65667772      -1.85031295      -2.36621261       1.92871141
Al       1.07175004       2.38298988       0.68579000      -6.74859142       0.12831338       0.85913223       0.93938512
Al       1.10101998       6.85646009       0.65232003      -6.77754641       0.28870353       0.70305687       0.70606583
Al       5.46014023       2.35689998       0.79334998      -6.53426695      -0.20986569       0.44761801      -0.14525767
Al       5.46195984       6.84714985       0.67624003      -6.72437859       0.31182957       0.66319400      -0.38190785
Al       1.09178996       4.32412004       5.63563013      -6.84239388       0.21447781      -0.72236872      -0.90585202
Al       1.11538005       8.80690002       5.62246990      -6.74976730      -0.05098403      -1.03165841      -0.58739936
Al       5.56422997       4.22095013       5.89122009      -6.48036957      -1.72411168       0.48508441      -3.84764552
Al       5.48483992       8.81462955       5.63551998      -6.76995564      -0.19835919      -0.61022836      -0.59627378
Al       3.09933996       4.26615000       3.78628993      -6.65144110       3.07101107       0.90548396       2.06662822
Al       3.28521991       8.86198044       3.83291006      -6.81132030       0.30537358      -2.04885864       1.04056430
Al       7.56773996       4.39281988       3.84309006      -6.68080378       1.01568830      -0.94169909       0.98777103
Al       7.65826988       8.87355042       3.84906006      -6.68154097       0.32444438      -0.63490242       0.65800297
Al       3.24682999       2.40142989       2.43539000      -6.69133568      -0.04150093       0.81180495      -0.26469058
Al       3.28437996       6.86145020       2.44942999      -6.70689154      -0.63303185       1.01990378      -0.51892501
Al       7.62060022       2.41321993       2.48667002      -6.80959129       0.08460484       1.10533559      -1.02992928
Al       7.65583992       6.90080976       2.45075011      -6.71854782      -0.16647647       0.67018545      -0.79504985
Al       3.30281997       2.10403991       5.68376017      -6.81671476       0.19214948      -0.81215912      -0.91871595
Al       3.32170010       6.53592014       5.61813021      -6.72160196      -0.07546625      -0.75169539      -0.34076002
Al       7.64977980       2.09859991       5.66429996      -6.77474165       0.03020808      -0.84132946      -0.38061851
Al       7.65235996       6.57811022       5.62361002      -6.86351728       0.13086118      -1.17474091      -0.52647471
Al       3.28799009       0.12241000       0.68581998      -6.72594643       0.06256360       0.75207448       0.47165313
Al       3.32832003       4.61639977       0.78364998      -6.77228022       0.29624063       1.68415499      -0.55274230
Al       7.65098000       0.14535999       0.69998002      -6.69828653       0.07889172       0.46859655       0.40240571
Al       7.64409018       4.63265991       0.74738002      -6.58842421       0.46642375       1.70441151       0.02927523
O        0.48927999       0.45034000       4.14376020      -6.46610594       0.35183308      -0.03717721       0.47360995
O        0.45480001       4.95512009       4.14234018      -6.59337807      -0.14576472       0.10738380       0.49903190
O        4.82250023       0.45508000       4.17002010      -6.62568903       0.64244342       0.66631740       0.47976986
O        0.46098000       1.77515996       2.18462992      -6.54551649       0.19986108      -0.40111759      -0.41549394
O        0.48513001       6.28179979       2.16019011      -6.53838015       0.40520075      -0.12677640      -0.30205840
O        4.81885004       1.79796004       2.24093008      -6.43614388      -0.06462212      -0.48125345      -0.13946174
O        4.82990980       6.42088985       2.14825010      -5.86086273       1.18587565      -3.00688219      -0.16355535
O        1.73329997       2.68467999       5.36533022      -6.53266382      -0.01615635       0.23775707      -0.24933863
O        1.75484002       7.15661001       5.34684992      -6.55174446      -0.09730113       0.29674742      -0.33724755
O        6.07898998       2.67296004       5.35813999      -6.46869707      -0.51438898      -0.50833130      -0.35353374
O        6.10897017       7.19576979       5.32170010      -6.56569386      -0.82472956      -0.05227468      -0.60844970
O        1.71546996       4.03952980       0.95049000      -6.55288363      -0.01131319      -0.20791650       0.25790370
O        1.74422002       8.49580956       0.94973999      -6.54019594      -0.36038503      -0.24981475       0.36808407
O        6.19889021       3.87453008       0.97408998      -5.54905605      -0.19995536       0.41536620       5.00493145
O        6.09776020       8.51657963       0.94362998      -6.53042698      -0.32738870      -0.50649428       0.44308603
O        3.78278995       4.02018023       2.27097011      -5.88071537       3.73026562       1.46872163      -0.26178184
O        3.90457010       8.56721973       2.18267012      -6.52066326      -0.34067309      -0.64026803      -0.42710149
O        8.25681019       4.05981016       2.21710992      -6.42382765      -0.52458411      -0.51298839      -0.06922657
O        8.29662037       8.53561020       2.17142010      -6.45687056      -0.13413572      -0.32794595      -0.34352997
O        3.91103005       2.79329991       4.20461988      -6.71140862       0.14745581       0.07779469       0.43430224
O        3.95855999       7.04566002       4.12297010      -6.71068239      -1.06212687       0.70885217       0.60318661
O        8.26216030       2.70603991       4.17516994      -6.55952549      -0.68850875       0.91943938       0.32114908
O        8.30442047       7.23726988       4.14642000      -6.51421261      -0.29393443       0.33885098       0.39902687
O        2.63662004       1.77550995       0.96941000      -6.50892687       0.11636394      -0.53905249       0.18080196
O        2.68504000       6.24376011       0.93531001      -6.59707069      -0.02663992       0.07699368       0.31276861
O        7.02293015       1.74281001       0.98948002      -6.46044064       0.32822141      -0.08733195       0.44660625
O        7.02331018       6.26515007       0.97612000      -6.62832689       0.21114588       0.03829693       0.31014585
O        2.66611004       0.43768999       5.37198019      -6.55538273       0.50083959       0.44296646      -0.51203132
O        2.70684004       4.90272999       5.30113983      -6.69695044       0.51087308       0.31126401       0.79732496
O        7.03086996       0.45642999       5.37348986      -6.50398207       0.07718261       0.26162475      -0.24761367
O        6.98194981       4.92242002       5.37535000      -6.57861853       0.77264535       0.47214079      -0.30061859
O        0.24221000       1.09233999       6.33734989      -6.23394203       0.45700663      -0.10921454      -0.09256089
O        0.22696000       5.57948017       6.32589006      -6.24102068       0.42932808      -0.13706644      -0.20405804
O        4.58759022       1.11907005       0.03080000      -6.27848959       0.40139261      -0.12473790      -0.21560614
O        4.65171003       5.54134989       6.22006989      -6.52477837      -0.31992924       0.59120405      -0.61679024
O        1.87029004       3.34466004       3.16070008      -6.00068998      -1.23905063      -0.70460463      -0.67611039
O        2.01326990       7.85734987       3.16342998      -6.25866604      -0.57848811      -0.11682101       0.12834637
O        6.36370993       3.38632011       3.23902011      -5.66059875      -2.72497749       2.30645514      -1.25638735
O        6.39216995       7.94162989       3.13012004      -5.93686533       0.20918141       0.62142849      -0.30170947
O        4.16901016       3.34768009       0.08826000      -6.18674135      -0.91026539      -0.33108625      -0.29624802
O        4.17035007       7.81016016       6.31625986      -6.30032253      -0.44343022      -0.06833417      -0.06523725
O        8.51206017       3.37281990       0.01738000      -6.18632555      -0.61364836       0.34668687      -0.15095240
O        8.53870010       7.83471012       6.33499002      -6.23451376      -0.50933570       0.10763593      -0.00993143
O        2.41091990       1.15401995       3.18570995      -6.20756674       0.25534829      -0.21649195       0.08880942
O        2.37053990       5.61354017       3.14178991      -6.14415550       0.72993052       0.32606509      -0.07550334
O        6.75576019       1.15535998       3.18046999      -6.17243290       0.30358002       0.17340460       0.33838001
O        6.79485989       5.72996998       3.29250002      -5.63447332      -0.65220267      -1.98268890      -0.70158535
77
Lattice="8.765734672546387 0.0 0.0 0.0 9.043449401855469 0.0 0.0 0.0 6.375215530395508" Properties=species:S:1:pos:R:3:energies:R:1:forces:R:3 energy=-503.3597106933594 stress="-0.8864960074424744 -0.0029553892090916634 0.005142819602042437 -0.0029553892090916634 -0.7904363870620728 0.011936460621654987 0.005142819602042437 0.011936460621654987 -0.777789831161499" pbc="T T T"
Al       1.13530004       0.13000999       2.48013997      -6.84165430       0.20157297       0.82127178      -0.51446849
Al       1.13375998       4.64148998       2.51940989      -6.73220825      -0.50628221       1.31397128      -0.88816136
Al       5.49728012       0.15442000       2.47844005      -6.80801916      -0.19184798       1.01201022      -0.74669915
Al       1.10460997       2.08076000       3.91322994      -6.68911934      -0.07647161      -1.18018174       0.81181592
Al       1.12061000       6.62909985       3.87916994      -6.84255266      -0.19583644      -0.74076712       0.76442176
Al       5.49204016       2.12209010       3.88118005      -6.69690323       0.25525010      -1.37034357       0.52961689
Al       5.55330992       6.74911022       3.71831989      -6.74115133      -1.52719414      -2.15871692       1.82355368
Al       1.10304999       2.42135000       0.69444001      -6.87130356      -0.05839782       0.69629157       0.52300310
Al       1.09939003       6.91061020       0.65859997      -6.89898109       0.13610099       0.70548451       0.55314684
Al       5.47965002       2.36583996       0.79718000      -6.73403358      -0.41243351       0.64652973      -0.26169881
Al       5.46668005       6.89317989       0.66422999      -6.82845068       0.28268734       0.58902001      -0.26897320
Al       1.08295000       4.36424017       5.60542011      -6.76601601      -0.24754310      -1.44026077      -0.67991590
Al       1.11731994       8.87679005       5.65350008      -6.77598524      -0.12750874      -0.68325710      -0.54115957
Al       5.56918001       4.27052021       5.87766981      -6.60624981      -1.13573492       0.46061367      -3.31826949
Al       5.50131989       8.87139034       5.65861988      -6.81509209      -0.09627374      -0.58727771      -0.37951228
Al       3.30252004       8.91724968       3.84224010      -6.87875509       0.27205437      -1.70138729       1.02472460
Al       7.59769011       4.41300011       3.83939004      -6.76240110       0.70961958      -0.94426328       0.99104249
Al       7.69239998       8.92551041       3.86198997      -6.79671049       0.24456395      -0.68404549       0.72019362
Al       3.27328992       2.50416994       2.57025003      -6.91717529       0.57096881      -0.29179287      -0.63054341
Al       3.30162001       6.87513018       2.49342990      -6.69153500      -0.31752375       1.16262269      -0.44460127
Al       7.66242981       2.42135000       2.50035000      -6.88394308      -0.02290826       0.99672103      -0.94297552
Al       7.68657017       6.94262981       2.45398998      -6.79952145      -0.16007692       0.58665109      -0.81172353
Al       3.29319000       2.09010005       5.67335987      -6.76345634      -0.22620657      -0.80465674      -0.30964804
Al       3.31622005       6.60481024       5.59147978      -6.69705153       0.18787777      -0.22526219       0.15822881
Al       7.69308996       2.10750008       5.69042015      -6.85569859      -0.04321299      -0.78427231      -0.45181853
Al       7.67868996       6.61896992       5.65176010      -6.92869949      -0.04086218      -0.95888692      -0.64938450
Al       3.30491996       0.14618000       0.71012002      -6.83746910       0.01877848       0.70662016       0.33274812
Al       3.23959994       4.70814991       0.63068998      -6.62684488       0.68922740       1.05350995       0.07045920
Al       7.69151020       0.14584000       0.70675999      -6.76775026       0.14058791       0.63931590       0.50616354
Al       7.69213009       4.66251993       0.75454003      -6.74820185      -0.03407695       1.45161474       0.06180666
O        0.49193999       0.44747001       4.17157984      -6.56669569       0.23980561       0.04671914       0.40171805
O        0.43790999       4.97677994       4.14489985      -6.60569572      -0.26474813       0.49157044       0.24614391
O        4.87705994       0.38958001       4.18475008      -6.62817001       0.50553995       0.62809092       0.39028269
O        0.45337999       1.77102005       2.17423010      -6.60172319       0.20206602      -0.58184302      -0.30611750
O        0.47466999       6.32238007       2.16796994      -6.64992571       0.54773593      -0.65439349      -0.23249736
O        4.84717989       1.80146003       2.24835992      -6.56232357      -0.57853383      -0.36550173      -0.34318417
O        4.85941982       6.46953011       2.15798998      -5.92390633       1.18930328      -2.83771396      -0.31502825
O        1.73617005       2.72341990       5.37117004      -6.66637802       0.10484026       0.20230387      -0.15553088
O        1.74110997       7.25072002       5.37364006      -6.56675529      -0.11126679       0.04532607      -0.38569307
O        6.11675978       2.70033002       5.38598013      -6.54569292      -0.42553189      -0.26485088      -0.11920298
O        6.13011980       7.24320984       5.33756018      -6.63026237      -0.53815579      -0.03259730      -0.52848148
O        1.68917000       4.07409000       0.96623999      -6.52920628      -0.22274533       0.16212322       0.18394877
O        1.74214995       8.57526970       0.95245999      -6.61020088      -0.29147673      -0.34571505       0.31553110
O        6.20113993       3.90842009       0.96473998      -5.69132185      -0.28161284       0.75354439       4.23556042
O        6.12395000       8.57660961       0.94142002      -6.62474394      -0.27974263      -0.54163307       0.43591338
O        3.86392999       3.99147010       1.98523998      -5.83507872       2.38346291       1.20071375       2.28448248
O        3.92690992       8.61606026       2.18401003      -6.60374069      -0.38133258      -0.71476972      -0.44264150
O        8.29874039       4.07611990       2.22727990      -6.55611229       0.19858724      -0.39240006      -0.16863501
O        8.33724022       8.59457016       2.17956996      -6.55398941      -0.13941467      -0.41016150      -0.38697675
O        3.95077991       2.60249996       4.21872997      -6.01694536      -1.44894207       2.80809855       0.05952983
O        3.96546006       7.12760019       4.12378979      -6.70317507      -0.64511657       0.62868631       0.59022969
O        8.31042957       2.70327997       4.18545008      -6.63688564      -0.77518731       0.91988724       0.21653479
O        8.33483028       7.26827002       4.16442013      -6.60662413      -0.45441985       0.32050011       0.33312610
O        2.66341996       1.80366004       0.97121000      -6.66820478       0.58520883      -0.06722195       1.17177713
O        2.67330003       6.31680012       0.99265999      -6.60871029       0.17976220       0.30348372      -0.05203502
O        7.05911016       1.75981998       0.99588001      -6.55105734       0.23893504      -0.04298699       0.43347663
O        7.03986979       6.30065012       0.97637999      -6.70955610      -0.00611913      -0.02141154       0.37026986
O        2.67868996       0.44058001       5.39311981      -6.61890841       0.41598758       0.18525334      -0.51935196
O        2.58100009       5.07585001       5.46276999      -5.80282164       0.89548886      -0.91780263      -3.50391650
O        7.06655979       0.45530000       5.39939022      -6.59911919       0.14220318       0.26269284      -0.22109674
O        6.99938011       4.95593023       5.37661982      -6.65655565       0.82438457       0.43283394      -0.17244336
O        0.24698000       1.11000001       6.36658001      -6.33832598       0.43006995      -0.10673468       0.03405678
O        0.20300999       5.62706995       6.34193993      -6.31144428       0.63839275      -0.19147536       0.05708760
O        4.62095022       1.12813997       0.02964000      -6.39400816       0.27573308       0.02965041      -0.23133996
O        4.65146017       5.59534979       6.20813990      -6.62933111      -0.04552910       0.46210268      -0.65607458
O        1.85797000       3.27757001       3.06453991      -5.53991604       0.85992092       1.34286356       0.62982851
O        2.01387000       7.90518999       3.17938995      -6.33322287      -0.50653154      -0.09397817      -0.03736798
O        6.39598989       3.38205004       3.25349998      -5.76668882      -2.86089206       2.15263867      -1.23231840
O        6.42897987       7.98226023       3.13129997      -6.01101208       0.04360542       0.52904505      -0.23359388
O        4.16892004       3.39053011       0.00644000      -6.29457855      -0.59738278      -0.30543184       0.16388476
O        4.17043018       7.86875010       6.33644009      -6.42206001      -0.44573057       0.02802090       0.09921970
O        8.54701042       3.40038991       0.00590000      -6.30456066      -0.53163010       0.19823307      -0.01414944
O        8.55416012       7.91494989      -0.01404000      -6.34160852      -0.42121315       0.09175392      -0.03609083
O        2.41983008       1.12627995       3.18710995      -6.27453375       0.58614075       0.22553751      -0.31376466
O        2.35660005       5.65090990       3.14562988      -5.68644524       2.69575739      -2.29871845       1.46457517
O        6.80088997       1.14485002       3.19353008      -6.24471855       0.51269883       0.17772882       0.06982049
O        6.81270981       5.76056004       3.29614997      -5.73391008      -0.73127252      -1.72893727      -0.61084002
79