 vasp.6.3.0 20Jan22 (build Oct 22 2023 14:48:56) complex                         
 executed on             LinuxGNU date 2023.12.02  14:31:05
 running  128 mpi-ranks, with   18 threads/rank
 distrk:  each k-point on  128 cores,    1 groups
 distr:  one band on NCORE=   1 cores,  128 groups


--------------------------------------------------------------------------------------------------------


 INCAR:
   SYSTEM = Alumina_orthorombic_cell_relaxation
   ISTART = 0
   ICHARG = 2
   ENCUT = 400
   ALGO = Normal
   PREC = Normal
   ISPIN = 1
   LWAVE = T             (Write WAVECAR)
   LCHARG = T             (Write CHGCAR)
   NPAR = 4
   EDIFF = 1E-6
   NSW = 400
   NELM = 100
   POTIM = 0.5
   IBRION = 2
   ISMEAR = 1
   SIGMA = 0.026
   EDIFFG = -0.001
   ISIF = 3
   LREAL = Auto

 POTCAR:    PAW_PBE Al 04Jan2001                  
 POTCAR:    PAW_PBE O 08Apr2002                   
 POTCAR:    PAW_PBE Al 04Jan2001                  
   SHA256 =  17880443556af62b473fe41b62a467bd001ad55d2cabe504a3f22e34d4e9db96 Al/POTCAR             
   COPYR  = (c) Copyright 04Jan2001 Georg Kresse                                                    
   COPYR  = This file is part of the software VASP. Any use, copying, and all other rights are regul
   COPYR  = If you do not have a valid VASP license, you may not use, copy or distribute this file. 
   VRHFIN =Al: s2p1                                                                                 
   LEXCH  = PE                                                                                      
   EATOM  =    53.5387 eV,    3.9350 Ry                                                             
                                                                                                    
   TITEL  = PAW_PBE Al 04Jan2001                                                                    
   LULTRA =        F    use ultrasoft PP ?                                                          
   IUNSCR =        1    unscreen: 0-lin 1-nonlin 2-no                                               
   RPACOR =    1.500    partial core radius                                                         
   POMASS =   26.981; ZVAL   =    3.000    mass and valenz                                          
   RCORE  =    1.900    outmost cutoff radius                                                       
   RWIGS  =    2.650; RWIGS  =    1.402    wigner-seitz radius (au A)                               
   ENMAX  =  240.300; ENMIN  =  180.225 eV                                                          
   ICORE  =        2    local potential                                                             
   LCOR   =        T    correct aug charges                                                         
   LPAW   =        T    paw PP                                                                      
   EAUG   =  291.052                                                                                
   DEXC   =    0.000                                                                                
   RMAX   =    1.939    core radius for proj-oper                                                   
   RAUG   =    1.300    factor for augmentation sphere                                              
   RDEP   =    1.966    radius for radial grids                                                     
   RDEPT  =    1.856    core radius for aug-charge                                                  
                                                                                                    
   Atomic configuration                                                                             
    6 entries                                                                                       
     n  l   j            E        occ.                                                              
     1  0  0.50     -1511.1048   2.0000                                                             
     2  0  0.50      -108.1629   2.0000                                                             
     2  1  1.50       -69.6402   6.0000                                                             
     3  0  0.50        -7.7528   2.0000                                                             
     3  1  1.50        -2.7121   1.0000                                                             
     3  2  2.50        -2.7212   0.0000                                                             
   Description                                                                                      
     l       E           TYP  RCUT    TYP  RCUT                                                     
     0     -7.7528455     23  1.900                                                                 
     0     -3.3096929     23  1.900                                                                 
     1     -2.7120682     23  1.900                                                                 
     1     13.6058260     23  1.900                                                                 
     2     -2.7211652      7  1.900                                                                 
  local pseudopotential read in
  partial core-charges read in
  partial kinetic energy density read in
  atomic valenz-charges read in
  non local Contribution for L=           0  read in
    real space projection operators read in
  non local Contribution for L=           0  read in
    real space projection operators read in
  non local Contribution for L=           1  read in
    real space projection operators read in
  non local Contribution for L=           1  read in
    real space projection operators read in
    PAW grid and wavefunctions read in

   number of l-projection  operators is LMAX  =           4
   number of lm-projection operators is LMMAX =           8

 POTCAR:    PAW_PBE O 08Apr2002                   
   SHA256 =  818f92134a0a090dccd8ba1447fa70422a3b330e708bb4f08108d8ae51209ddf O/POTCAR              
   COPYR  = (c) Copyright 08Apr2002 Georg Kresse                                                    
   COPYR  = This file is part of the software VASP. Any use, copying, and all other rights are regul
   COPYR  = If you do not have a valid VASP license, you may not use, copy or distribute this file. 
   VRHFIN =O: s2p4                                                                                  
   LEXCH  = PE                                                                                      
   EATOM  =   432.3788 eV,   31.7789 Ry                                                             
                                                                                                    
   TITEL  = PAW_PBE O 08Apr2002                                                                     
   LULTRA =        F    use ultrasoft PP ?                                                          
   IUNSCR =        1    unscreen: 0-lin 1-nonlin 2-no                                               
   RPACOR =    1.200    partial core radius                                                         
   POMASS =   16.000; ZVAL   =    6.000    mass and valenz                                          
   RCORE  =    1.520    outmost cutoff radius                                                       
   RWIGS  =    1.550; RWIGS  =    0.820    wigner-seitz radius (au A)                               
   ENMAX  =  400.000; ENMIN  =  300.000 eV                                                          
   ICORE  =        2    local potential                                                             
   LCOR   =        T    correct aug charges                                                         
   LPAW   =        T    paw PP                                                                      
   EAUG   =  605.392                                                                                
   DEXC   =    0.000                                                                                
   RMAX   =    1.553    core radius for proj-oper                                                   
   RAUG   =    1.300    factor for augmentation sphere                                              
   RDEP   =    1.550    radius for radial grids                                                     
   RDEPT  =    1.329    core radius for aug-charge                                                  
                                                                                                    
   Atomic configuration                                                                             
    4 entries                                                                                       
     n  l   j            E        occ.                                                              
     1  0  0.50      -514.6923   2.0000                                                             
     2  0  0.50       -23.9615   2.0000                                                             
     2  1  0.50        -9.0305   4.0000                                                             
     3  2  1.50        -9.5241   0.0000                                                             
   Description                                                                                      
     l       E           TYP  RCUT    TYP  RCUT                                                     
     0    -23.9615318     23  1.200                                                                 
     0     -9.5240782     23  1.200                                                                 
     1     -9.0304911     23  1.520                                                                 
     1      8.1634956     23  1.520                                                                 
     2     -9.5240782      7  1.500                                                                 
  local pseudopotential read in
  partial core-charges read in
  partial kinetic energy density read in
  kinetic energy density of atom read in
  atomic valenz-charges read in
  non local Contribution for L=           0  read in
    real space projection operators read in
  non local Contribution for L=           0  read in
    real space projection operators read in
  non local Contribution for L=           1  read in
    real space projection operators read in
  non local Contribution for L=           1  read in
    real space projection operators read in
    PAW grid and wavefunctions read in

   number of l-projection  operators is LMAX  =           4
   number of lm-projection operators is LMMAX =           8

 Optimization of the real space projectors (new method)

 maximal supplied QI-value         = 19.84
 optimisation between [QCUT,QGAM] = [ 10.12, 20.44] = [ 28.68,116.96] Ry 
 Optimized for a Real-space Cutoff    1.23 Angstroem

   l    n(q)    QCUT    max X(q) W(low)/X(q) W(high)/X(q)  e(spline) 
   0      7    10.119   176.870    0.49E-04    0.18E-03    0.39E-07
   0      7    10.119   105.762    0.46E-04    0.18E-03    0.38E-07
   1      7    10.119    55.370    0.30E-03    0.37E-03    0.12E-06
   1      7    10.119    20.208    0.27E-03    0.35E-03    0.11E-06
 Optimization of the real space projectors (new method)

 maximal supplied QI-value         = 24.76
 optimisation between [QCUT,QGAM] = [ 10.15, 20.30] = [ 28.85,115.39] Ry 
 Optimized for a Real-space Cutoff    1.38 Angstroem

   l    n(q)    QCUT    max X(q) W(low)/X(q) W(high)/X(q)  e(spline) 
   0      8    10.150    20.381    0.22E-03    0.32E-03    0.29E-06
   0      8    10.150    15.268    0.23E-03    0.35E-03    0.30E-06
   1      8    10.150     5.964    0.46E-03    0.53E-03    0.21E-06
   1      8    10.150     5.382    0.38E-03    0.45E-03    0.19E-06
  PAW_PBE Al 04Jan2001                  :
 energy of atom  1       EATOM=  -53.5387
 kinetic energy error for atom=    0.0005 (will be added to EATOM!!)
  PAW_PBE O 08Apr2002                   :
 energy of atom  2       EATOM= -432.3788
 kinetic energy error for atom=    0.1156 (will be added to EATOM!!)


 POSCAR:    Al  O
  positions in cartesian coordinates
  No initial velocities read in
 exchange correlation table for  LEXCH =        8
   RHO(1)=    0.500       N(1)  =     2000
   RHO(2)=  100.500       N(2)  =     4000



--------------------------------------------------------------------------------------------------------


 ion  position               nearest neighbor table
   1  0.252  0.031  0.390-  18 1.87  13 1.89  12 1.93  20 1.97  10 1.99   9 2.03   2 2.68   5 2.88
                             5 2.91   8 3.14   8 3.14   3 3.19   3 3.19   2 3.20
   2  0.252  0.469  0.610-  18 1.87  14 1.89  11 1.93  20 1.97   9 1.99  10 2.03   1 2.68   6 2.88
                             6 2.91   7 3.14   7 3.14   4 3.19   4 3.19   1 3.20
   3  0.248  0.531  0.110-  17 1.87  15 1.89  10 1.93  19 1.97  12 1.99  11 2.03   4 2.68   7 2.88
                             7 2.91   6 3.14   6 3.14   1 3.19   1 3.19   4 3.20
   4  0.248  0.969  0.890-  17 1.87  16 1.89   9 1.93  19 1.97  11 1.99  12 2.03   3 2.68   8 2.88
                             8 2.91   5 3.14   5 3.14   2 3.19   2 3.19   3 3.20
   5  0.748  0.969  0.610-  20 1.87   9 1.89  16 1.93  18 1.97  14 1.99  13 2.03   6 2.68   1 2.88
                             1 2.91   4 3.14   4 3.14   7 3.19   7 3.19   6 3.20
   6  0.748  0.531  0.390-  20 1.87  10 1.89  15 1.93  18 1.97  13 1.99  14 2.03   5 2.68   2 2.88
                             2 2.91   3 3.14   3 3.14   8 3.19   8 3.19   5 3.20
   7  0.752  0.469  0.890-  19 1.87  11 1.89  14 1.93  17 1.97  16 1.99  15 2.03   8 2.68   3 2.88
                             3 2.91   2 3.14   2 3.14   5 3.19   5 3.19   8 3.20
   8  0.752  0.031  0.110-  19 1.87  12 1.89  13 1.93  17 1.97  15 1.99  16 2.03   7 2.68   4 2.88
                             4 2.91   1 3.14   1 3.14   6 3.19   6 3.19   7 3.20
   9  0.107  0.102  0.654-   5 1.89   4 1.93   2 1.99   1 2.03
  10  0.107  0.398  0.346-   6 1.89   3 1.93   1 1.99   2 2.03
  11  0.393  0.602  0.846-   7 1.89   2 1.93   4 1.99   3 2.03
  12  0.393  0.898  0.154-   8 1.89   1 1.93   3 1.99   4 2.03
  13  0.893  0.898  0.346-   1 1.89   8 1.93   6 1.99   5 2.03
  14  0.893  0.602  0.654-   2 1.89   7 1.93   5 1.99   6 2.03
  15  0.607  0.398  0.154-   3 1.89   6 1.93   8 1.99   7 2.03
  16  0.607  0.102  0.846-   4 1.89   5 1.93   7 1.99   8 2.03
  17  0.049  0.250  0.000-   3 1.87   4 1.87   8 1.97   7 1.97
  18  0.451  0.750  0.500-   1 1.87   2 1.87   6 1.97   5 1.97
  19  0.951  0.750  0.000-   8 1.87   7 1.87   3 1.97   4 1.97
  20  0.549  0.250  0.500-   6 1.87   5 1.87   2 1.97   1 1.97

  LATTYP: Found a simple orthorhombic cell.
 ALAT       =     4.8469328880
 B/A-ratio  =     1.0285688145
 C/A-ratio  =     1.4627685567
  
  Lattice vectors:
  
 A1 = (   4.8469328880,   0.0000000000,   0.0000000000)
 A2 = (   0.0000000000,   4.9854040146,   0.0000000000)
 A3 = (   0.0000000000,   0.0000000000,   7.0899410248)


Analysis of symmetry for initial positions (statically):
=====================================================================
 Subroutine PRICEL returns:
 Original cell was already a primitive cell.
 

 Routine SETGRP: Setting up the symmetry group for a 
 simple orthorhombic supercell.


 Subroutine GETGRP returns: Found  8 space group operations
 (whereof  2 operations were pure point group operations)
 out of a pool of  8 trial point group operations.


The static configuration has the point symmetry S_2 .
 The point group associated with its full space group is D_2h.


Analysis of symmetry for dynamics (positions and initial velocities):
=====================================================================
 Subroutine PRICEL returns:
 Original cell was already a primitive cell.
 

 Routine SETGRP: Setting up the symmetry group for a 
 simple orthorhombic supercell.


 Subroutine GETGRP returns: Found  8 space group operations
 (whereof  2 operations were pure point group operations)
 out of a pool of  8 trial point group operations.


The dynamic configuration has the point symmetry S_2 .
 The point group associated with its full space group is D_2h.


Analysis of constrained symmetry for selective dynamics:
=====================================================================
 Subroutine PRICEL returns:
 Original cell was already a primitive cell.
 

 Routine SETGRP: Setting up the symmetry group for a 
 simple orthorhombic supercell.


 Subroutine GETGRP returns: Found  8 space group operations
 (whereof  2 operations were pure point group operations)
 out of a pool of  8 trial point group operations.


The constrained configuration has the point symmetry S_2 .
 The point group associated with its full space group is D_2h.


 Subroutine INISYM returns: Found  8 space group operations
 (whereof  2 operations are pure point group operations),
 and found     1 'primitive' translations


----------------------------------------------------------------------------------------

                                     Primitive cell                                     

  volume of cell :     171.3208

  direct lattice vectors                    reciprocal lattice vectors
     4.846932888  0.000000000  0.000000000     0.206316040  0.000000000  0.000000000
     0.000000000  4.985404015  0.000000000     0.000000000  0.200585549  0.000000000
     0.000000000  0.000000000  7.089941025     0.000000000  0.000000000  0.141044897

  length of vectors
     4.846932888  4.985404015  7.089941025     0.206316040  0.200585549  0.141044897

  position of ions in fractional coordinates (direct lattice)
     0.252151996  0.030514000  0.390394986
     0.252151996  0.469485998  0.609605014
     0.247848004  0.530514002  0.109604999
     0.247848004  0.969485998  0.890394986
     0.747847974  0.969485998  0.609605014
     0.747847974  0.530514002  0.390394986
     0.752152026  0.469485998  0.890394986
     0.752152026  0.030514000  0.109604999
     0.107020997  0.101976000  0.654002011
     0.107020997  0.398023993  0.345997989
     0.392978996  0.601975978  0.845997989
     0.392978996  0.898024023  0.154001996
     0.892979026  0.898024023  0.345997989
     0.892979026  0.601975978  0.654002011
     0.607020974  0.398023993  0.154001996
     0.607020974  0.101976000  0.845997989
     0.049403999  0.250000000  0.000000000
     0.450596005  0.750000000  0.500000000
     0.950595975  0.750000000  0.000000000
     0.549404025  0.250000000  0.500000000

  ion indices of the primitive-cell ions
   primitive index   ion index
                 1           1
                 2           2
                 3           3
                 4           4
                 5           5
                 6           6
                 7           7
                 8           8
                 9           9
                10          10
                11          11
                12          12
                13          13
                14          14
                15          15
                16          16
                17          17
                18          18
                19          19
                20          20

----------------------------------------------------------------------------------------



 KPOINTS: k-points                                

Automatic generation of k-mesh.
 Grid dimensions read from file:
 generate k-points for:    4    4    4

 Generating k-lattice:

  Cartesian coordinates                     Fractional coordinates (reciprocal lattice)
     0.051579010  0.000000000  0.000000000     0.250000000  0.000000000  0.000000000
     0.000000000  0.050146387  0.000000000     0.000000000  0.250000000  0.000000000
     0.000000000  0.000000000  0.035261224     0.000000000  0.000000000  0.250000000

  Length of vectors
     0.051579010  0.050146387  0.035261224

  Shift w.r.t. Gamma in fractional coordinates (k-lattice)
     0.500000000  0.500000000  0.500000000

 
 Subroutine IBZKPT returns following result:
 ===========================================
 
 Found      8 irreducible k-points:
 
 Following reciprocal coordinates:
            Coordinates               Weight
  0.125000  0.125000  0.125000      8.000000
  0.375000  0.125000  0.125000      8.000000
  0.125000  0.375000  0.125000      8.000000
  0.375000  0.375000  0.125000      8.000000
  0.125000  0.125000  0.375000      8.000000
  0.375000  0.125000  0.375000      8.000000
  0.125000  0.375000  0.375000      8.000000
  0.375000  0.375000  0.375000      8.000000
 
 Following cartesian coordinates:
            Coordinates               Weight
  0.025790  0.025073  0.017631      8.000000
  0.077369  0.025073  0.017631      8.000000
  0.025790  0.075220  0.017631      8.000000
  0.077369  0.075220  0.017631      8.000000
  0.025790  0.025073  0.052892      8.000000
  0.077369  0.025073  0.052892      8.000000
  0.025790  0.075220  0.052892      8.000000
  0.077369  0.075220  0.052892      8.000000
 


--------------------------------------------------------------------------------------------------------




 Dimension of arrays:
   k-points           NKPTS =      8   k-points in BZ     NKDIM =      8   number of bands    NBANDS=    128
   number of dos      NEDOS =    301   number of ions     NIONS =     20
   non local maximal  LDIM  =      4   non local SUM 2l+1 LMDIM =      8
   total plane-waves  NPLWV =  20736
   max r-space proj   IRMAX =   1383   max aug-charges    IRDMAX=   4910
   dimension x,y,z NGX =    24 NGY =   24 NGZ =   36
   dimension x,y,z NGXF=    48 NGYF=   48 NGZF=   72
   support grid    NGXF=    48 NGYF=   48 NGZF=   72
   ions per type =               8  12
   NGX,Y,Z   is equivalent  to a cutoff of   8.23,  8.00,  8.44 a.u.
   NGXF,Y,Z  is equivalent  to a cutoff of  16.46, 16.01, 16.88 a.u.

 SYSTEM =  Alumina_orthorombic_cell_relaxation     
 POSCAR =     Al  O                                

 Startparameter for this run:
   NWRITE =      2    write-flag & timer
   PREC   = normal    normal or accurate (medium, high low for compatibility)
   ISTART =      0    job   : 0-new  1-cont  2-samecut
   ICHARG =      2    charge: 1-file 2-atom 10-const
   ISPIN  =      1    spin polarized calculation?
   LNONCOLLINEAR =      F non collinear calculations
   LSORBIT =      F    spin-orbit coupling
   INIWAV =      1    electr: 0-lowe 1-rand  2-diag
   LASPH  =      F    aspherical Exc in radial PAW
 Electronic Relaxation 1
   ENCUT  =  400.0 eV  29.40 Ry    5.42 a.u.   7.90  8.13 11.56*2*pi/ulx,y,z
   ENINI  =  400.0     initial cutoff
   ENAUG  =  605.4 eV  augmentation charge cutoff
   NELM   =    100;   NELMIN=  2; NELMDL= -5     # of ELM steps 
   EDIFF  = 0.1E-05   stopping-criterion for ELM
   LREAL  =      T    real-space projection
   NLSPLINE    = F    spline interpolate recip. space projectors
   LCOMPAT=      F    compatible to vasp.4.4
   GGA_COMPAT  = T    GGA compatible to vasp.4.4-vasp.4.6
   LMAXPAW     = -100 max onsite density
   LMAXMIX     =    2 max onsite mixed and CHGCAR
   VOSKOWN=      0    Vosko Wilk Nusair interpolation
   ROPT   =   -0.00050  -0.00050
 Ionic relaxation
   EDIFFG = -.1E-02   stopping-criterion for IOM
   NSW    =    400    number of steps for IOM
   NBLOCK =      1;   KBLOCK =    400    inner block; outer block 
   IBRION =      2    ionic relax: 0-MD 1-quasi-New 2-CG
   NFREE  =      1    steps in history (QN), initial steepest desc. (CG)
   ISIF   =      3    stress and relaxation
   IWAVPR =     11    prediction:  0-non 1-charg 2-wave 3-comb
   ISYM   =      2    0-nonsym 1-usesym 2-fastsym
   LCORR  =      T    Harris-Foulkes like correction to forces

   POTIM  = 0.5000    time-step for ionic-motion
   TEIN   =    0.0    initial temperature
   TEBEG  =    0.0;   TEEND  =   0.0 temperature during run
   SMASS  =  -3.00    Nose mass-parameter (am)
   estimated Nose-frequenzy (Omega)   =  0.10E-29 period in steps = 0.13E+47 mass=  -0.537E-27a.u.
   SCALEE = 1.0000    scale energy and forces
   NPACO  =    256;   APACO  = 10.0  distance and # of slots for P.C.
   PSTRESS=    0.0 pullay stress

  Mass of Ions in am
   POMASS =  26.98 16.00
  Ionic Valenz
   ZVAL   =   3.00  6.00
  Atomic Wigner-Seitz radii
   RWIGS  =  -1.00 -1.00
  virtual crystal weights 
   VCA    =   1.00  1.00
   NELECT =      96.0000    total number of electrons
   NUPDOWN=      -1.0000    fix difference up-down

 DOS related values:
   EMIN   =  10.00;   EMAX   =-10.00  energy-range for DOS
   EFERMI =   0.00
   ISMEAR =     1;   SIGMA  =   0.03  broadening in eV -4-tet -1-fermi 0-gaus

 Electronic relaxation 2 (details)
   IALGO  =     38    algorithm
   LDIAG  =      T    sub-space diagonalisation (order eigenvalues)
   LSUBROT=      F    optimize rotation matrix (better conditioning)
   TURBO    =      0    0=normal 1=particle mesh
   IRESTART =      0    0=no restart 2=restart with 2 vectors
   NREBOOT  =      0    no. of reboots
   NMIN     =      0    reboot dimension
   EREF     =   0.00    reference energy to select bands
   IMIX   =      4    mixing-type and parameters
     AMIX     =   0.40;   BMIX     =  1.00
     AMIX_MAG =   1.60;   BMIX_MAG =  1.00
     AMIN     =   0.10
     WC   =   100.;   INIMIX=   1;  MIXPRE=   1;  MAXMIX= -45

 Intra band minimization:
   WEIMIN = 0.0010     energy-eigenvalue tresh-hold
   EBREAK =  0.20E-08  absolut break condition
   DEPER  =   0.30     relativ break condition  

   TIME   =   0.40     timestep for ELM

  volume/ion in A,a.u.               =       8.57        57.81
  Fermi-wavevector in a.u.,A,eV,Ry     =   1.349673  2.550512 24.784609  1.821617
  Thomas-Fermi vector in A             =   2.477241

 Write flags
   LWAVE        =      T    write WAVECAR
   LDOWNSAMPLE  =      F    k-point downsampling of WAVECAR
   LCHARG       =      T    write CHGCAR
   LVTOT        =      F    write LOCPOT, total local potential
   LVHAR        =      F    write LOCPOT, Hartree potential only
   LELF         =      F    write electronic localiz. function (ELF)
   LORBIT       =      0    0 simple, 1 ext, 2 COOP (PROOUT), +10 PAW based schemes


 Dipole corrections
   LMONO  =      F    monopole corrections only (constant potential shift)
   LDIPOL =      F    correct potential (dipole corrections)
   IDIPOL =      0    1-x, 2-y, 3-z, 4-all directions 
   EPSILON=  1.0000000 bulk dielectric constant

 Exchange correlation treatment:
   GGA     =    --    GGA type
   LEXCH   =     8    internal setting for exchange type
   LIBXC   =     F    Libxc                    
   VOSKOWN =     0    Vosko Wilk Nusair interpolation
   LHFCALC =     F    Hartree Fock is set to
   LHFONE  =     F    Hartree Fock one center treatment
   AEXX    =    0.0000 exact exchange contribution

 Linear response parameters
   LEPSILON=     F    determine dielectric tensor
   LRPA    =     F    only Hartree local field effects (RPA)
   LNABLA  =     F    use nabla operator in PAW spheres
   LVEL    =     F    velocity operator in full k-point grid
   CSHIFT  =0.1000    complex shift for real part using Kramers Kronig
   OMEGAMAX=  -1.0    maximum frequency
   DEG_THRESHOLD= 0.2000000E-02 threshold for treating states as degnerate
   RTIME   =   -0.100 relaxation time in fs
  (WPLASMAI=    0.000 imaginary part of plasma frequency in eV, 0.658/RTIME)
   DFIELD  = 0.0000000 0.0000000 0.0000000 field for delta impulse in time

  Optional k-point grid parameters
   LKPOINTS_OPT  =     F    use optional k-point grid
   KPOINTS_OPT_MODE=     1    mode for optional k-point grid

 Orbital magnetization related:
   ORBITALMAG=     F  switch on orbital magnetization
   LCHIMAG   =     F  perturbation theory with respect to B field
   DQ        =  0.001000  dq finite difference perturbation B field
   LLRAUG    =     F  two centre corrections for induced B field



--------------------------------------------------------------------------------------------------------


 conjugate gradient relaxation of ions
   using selective dynamics as specified on POSCAR
   WARNING: If single coordinates had been selected the selection of coordinates
            is made according to the corresponding   d i r e c t   coordinates!
            Don't support selection of single cartesian coordinates -- sorry ... !
 charge density and potential will be updated during run
 non-spin polarized calculation
 Variant of blocked Davidson
 Davidson routine will perform the subspace rotation
 perform sub-space diagonalisation
    after iterative eigenvector-optimisation
 modified Broyden-mixing scheme, WC =      100.0
 initial mixing is a Kerker type mixing with AMIX =  0.4000 and BMIX =      1.0000
 Hartree-type preconditioning will be used
 using additional bands           80
 real space projection scheme for non local part
 use partial core corrections
 calculate Harris-corrections to forces   (improved forces if not selfconsistent)
 use gradient corrections 
 use of overlap-Matrix (Vanderbilt PP)
 Methfessel and Paxton  Order N= 1 SIGMA  =   0.03


--------------------------------------------------------------------------------------------------------


  energy-cutoff  :      400.00
  volume of cell :      171.32
      direct lattice vectors                 reciprocal lattice vectors
     4.846932888  0.000000000  0.000000000     0.206316040  0.000000000  0.000000000
     0.000000000  4.985404015  0.000000000     0.000000000  0.200585549  0.000000000
     0.000000000  0.000000000  7.089941025     0.000000000  0.000000000  0.141044897

  length of vectors
     4.846932888  4.985404015  7.089941025     0.206316040  0.200585549  0.141044897



 k-points in units of 2pi/SCALE and weight: k-points                                
   0.02578951  0.02507319  0.01763061       0.125
   0.07736852  0.02507319  0.01763061       0.125
   0.02578951  0.07521958  0.01763061       0.125
   0.07736852  0.07521958  0.01763061       0.125
   0.02578951  0.02507319  0.05289184       0.125
   0.07736852  0.02507319  0.05289184       0.125
   0.02578951  0.07521958  0.05289184       0.125
   0.07736852  0.07521958  0.05289184       0.125

 k-points in reciprocal lattice and weights: k-points                                
   0.12500000  0.12500000  0.12500000       0.125
   0.37500000  0.12500000  0.12500000       0.125
   0.12500000  0.37500000  0.12500000       0.125
   0.37500000  0.37500000  0.12500000       0.125
   0.12500000  0.12500000  0.37500000       0.125
   0.37500000  0.12500000  0.37500000       0.125
   0.12500000  0.37500000  0.37500000       0.125
   0.37500000  0.37500000  0.37500000       0.125

 position of ions in fractional coordinates (direct lattice) 
   0.25215200  0.03051400  0.39039499
   0.25215200  0.46948600  0.60960501
   0.24784800  0.53051400  0.10960500
   0.24784800  0.96948600  0.89039499
   0.74784797  0.96948600  0.60960501
   0.74784797  0.53051400  0.39039499
   0.75215203  0.46948600  0.89039499
   0.75215203  0.03051400  0.10960500
   0.10702100  0.10197600  0.65400201
   0.10702100  0.39802399  0.34599799
   0.39297900  0.60197598  0.84599799
   0.39297900  0.89802402  0.15400200
   0.89297903  0.89802402  0.34599799
   0.89297903  0.60197598  0.65400201
   0.60702097  0.39802399  0.15400200
   0.60702097  0.10197600  0.84599799
   0.04940400  0.25000000  0.00000000
   0.45059600  0.75000000  0.50000000
   0.95059597  0.75000000  0.00000000
   0.54940403  0.25000000  0.50000000

 position of ions in cartesian coordinates  (Angst):
   1.22216380  0.15212462  2.76787743
   1.22216380  2.34057738  4.32206360
   1.20130264  2.64482663  0.77709298
   1.20130264  4.83327939  6.31284794
   3.62476894  4.83327939  4.32206360
   3.62476894  2.64482663  2.76787743
   3.64563039  2.34057738  6.31284794
   3.64563039  0.15212462  0.77709298
   0.51872359  0.50839156  4.63683569
   0.51872359  1.98431041  2.45310534
   1.90474282  3.00109345  5.99807585
   1.90474282  4.47701257  1.09186507
   4.32820941  4.47701257  2.45310534
   4.32820941  3.00109345  4.63683569
   2.94218992  1.98431041  1.09186507
   2.94218992  0.50839156  5.99807585
   0.23945787  1.24635100  0.00000000
   2.18400860  3.73905301  3.54497051
   4.60747489  3.73905301  0.00000000
   2.66292444  1.24635100  3.54497051



--------------------------------------------------------------------------------------------------------


 k-point   1 :   0.1250 0.1250 0.1250  plane waves:    3100
 k-point   2 :   0.3750 0.1250 0.1250  plane waves:    3116
 k-point   3 :   0.1250 0.3750 0.1250  plane waves:    3110
 k-point   4 :   0.3750 0.3750 0.1250  plane waves:    3124
 k-point   5 :   0.1250 0.1250 0.3750  plane waves:    3106
 k-point   6 :   0.3750 0.1250 0.3750  plane waves:    3108
 k-point   7 :   0.1250 0.3750 0.3750  plane waves:    3108
 k-point   8 :   0.3750 0.3750 0.3750  plane waves:    3119

 maximum and minimum number of plane-waves per node :      3124     3100

 maximum number of plane-waves:      3124
 maximum index in each direction: 
   IXMAX=    7   IYMAX=    8   IZMAX=   11
   IXMIN=   -8   IYMIN=   -8   IZMIN=  -11


 serial   3D FFT for wavefunctions
 parallel 3D FFT for charge:
    minimum data exchange during FFTs selected (reduces bandwidth)


 total amount of memory used by VASP MPI-rank0    34554. kBytes
=======================================================================

   base      :      30000. kBytes
   nonlr-proj:       2792. kBytes
   fftplans  :        223. kBytes
   grid      :       1036. kBytes
   one-center:         61. kBytes
   wavefun   :        442. kBytes

     INWAV:  cpu time      0.0001: real time      0.0000
 Broyden mixing: mesh for mixing (old mesh)
   NGX = 15   NGY = 17   NGZ = 23
  (NGX  = 48   NGY  = 48   NGZ  = 72)
  gives a total of   5865 points

 initial charge density was supplied:
 charge density of overlapping atoms calculated
 number of electron      96.0000000 magnetization 
 keeping initial charge density in first step


--------------------------------------------------------------------------------------------------------


 Maximum index for non-local projection operator          141
 Maximum index for augmentation-charges          141 (set IRDMAX)


--------------------------------------------------------------------------------------------------------


 First call to EWALD:  gamma=   0.319
 Maximum number of real-space cells 3x 3x 2
 Maximum number of reciprocal cells 2x 3x 3

    FEWALD:  cpu time     47.3537: real time     46.9461


--------------------------------------- Iteration      1(   1)  ---------------------------------------


    POTLOK:  cpu time     11.9338: real time     12.0214
    SETDIJ:  cpu time      0.7577: real time      0.7978
     EDDAV:  cpu time    148.8151: real time    148.3350
       DOS:  cpu time      0.0012: real time      0.0012
    --------------------------------------------
      LOOP:  cpu time    161.5079: real time    161.1555

 eigenvalue-minimisations  :  2048
 total energy-change (2. order) :-0.5062816E+01  (-0.5081362E+04)
 number of electron      96.0000000 magnetization 
 augmentation part       96.0000000 magnetization 

 Free energy of the ion-electron system (eV)
  ---------------------------------------------------
  alpha Z        PSCENC =       150.70794961
  Ewald energy   TEWEN  =     -4826.41036334
  -Hartree energ DENC   =     -1250.46207185
  -exchange      EXHF   =         0.00000000
  -V(xc)+E(xc)   XCENC  =       132.26952888
  PAW double counting   =      4688.19497969    -4454.14273673
  entropy T*S    EENTRO =         0.00000000
  eigenvalues    EBANDS =       -60.68368882
  atomic energy  EATOM  =      5615.46358700
  Solvation  Ediel_sol  =         0.00000000
  ---------------------------------------------------
  free energy    TOTEN  =        -5.06281555 eV

  energy without entropy =       -5.06281555  energy(sigma->0) =       -5.06281555


--------------------------------------------------------------------------------------------------------




--------------------------------------- Iteration      1(   2)  ---------------------------------------


     EDDAV:  cpu time    204.2010: real time    204.4952
       DOS:  cpu time      0.0016: real time      0.0016
    --------------------------------------------
      LOOP:  cpu time    204.2026: real time    204.4968

 eigenvalue-minimisations  :  3072
 total energy-change (2. order) :-0.1584515E+03  (-0.1584518E+03)
 number of electron      96.0000000 magnetization 
 augmentation part       96.0000000 magnetization 

 Free energy of the ion-electron system (eV)
  ---------------------------------------------------
  alpha Z        PSCENC =       150.70794961
  Ewald energy   TEWEN  =     -4826.41036334
  -Hartree energ DENC   =     -1250.46207185
  -exchange      EXHF   =         0.00000000
  -V(xc)+E(xc)   XCENC  =       132.26952888
  PAW double counting   =      4688.19497969    -4454.14273673
  entropy T*S    EENTRO =         0.00053337
  eigenvalues    EBANDS =      -219.13575112
  atomic energy  EATOM  =      5615.46358700
  Solvation  Ediel_sol  =         0.00000000
  ---------------------------------------------------
  free energy    TOTEN  =      -163.51434448 eV

  energy without entropy =     -163.51487785  energy(sigma->0) =     -163.51452227


--------------------------------------------------------------------------------------------------------




--------------------------------------- Iteration      1(   3)  ---------------------------------------


     EDDAV:  cpu time    148.7646: real time    149.1819
       DOS:  cpu time      0.0015: real time      0.0015
    --------------------------------------------
      LOOP:  cpu time    148.7661: real time    149.1834

 eigenvalue-minimisations  :  2048
 total energy-change (2. order) :-0.4464254E+00  (-0.4464256E+00)
 number of electron      96.0000000 magnetization 
 augmentation part       96.0000000 magnetization 

 Free energy of the ion-electron system (eV)
  ---------------------------------------------------
  alpha Z        PSCENC =       150.70794961
  Ewald energy   TEWEN  =     -4826.41036334
  -Hartree energ DENC   =     -1250.46207185
  -exchange      EXHF   =         0.00000000
  -V(xc)+E(xc)   XCENC  =       132.26952888
  PAW double counting   =      4688.19497969    -4454.14273673
  entropy T*S    EENTRO =         0.00054076
  eigenvalues    EBANDS =      -219.58218387
  atomic energy  EATOM  =      5615.46358700
  Solvation  Ediel_sol  =         0.00000000
  ---------------------------------------------------
  free energy    TOTEN  =      -163.96076985 eV

  energy without entropy =     -163.96131060  energy(sigma->0) =     -163.96095010


--------------------------------------------------------------------------------------------------------




--------------------------------------- Iteration      1(   4)  ---------------------------------------


     EDDAV:  cpu time    261.8026: real time    261.8815
       DOS:  cpu time      0.0011: real time      0.0011
    --------------------------------------------
      LOOP:  cpu time    261.8037: real time    261.8825

 eigenvalue-minimisations  :  4096
 total energy-change (2. order) :-0.9701650E-03  (-0.6744129E-03)
 number of electron      96.0000000 magnetization 
 augmentation part       96.0000000 magnetization 

 Free energy of the ion-electron system (eV)
  ---------------------------------------------------
  alpha Z        PSCENC =       150.70794961
  Ewald energy   TEWEN  =     -4826.41036334
  -Hartree energ DENC   =     -1250.46207185
  -exchange      EXHF   =         0.00000000
  -V(xc)+E(xc)   XCENC  =       132.26952888
  PAW double counting   =      4688.19497969    -4454.14273673
  entropy T*S    EENTRO =         0.00000000
  eigenvalues    EBANDS =      -219.58261328
  atomic energy  EATOM  =      5615.46358700
  Solvation  Ediel_sol  =         0.00000000
  ---------------------------------------------------
  free energy    TOTEN  =      -163.96174001 eV

  energy without entropy =     -163.96174001  energy(sigma->0) =     -163.96174001


--------------------------------------------------------------------------------------------------------




--------------------------------------- Iteration      1(   5)  ---------------------------------------


     EDDAV:  cpu time    148.8273: real time    148.2737
       DOS:  cpu time      0.0016: real time      0.0016
    CHARGE:  cpu time      9.1046: real time      8.8630
    MIXING:  cpu time      1.4451: real time      1.4385
    --------------------------------------------
      LOOP:  cpu time    159.3787: real time    158.5770

 eigenvalue-minimisations  :  2048
 total energy-change (2. order) : 0.2957489E-03  (-0.3299263E-08)
 number of electron      96.0000297 magnetization 
 augmentation part        9.2820788 magnetization 

 Broyden mixing:
  rms(total) = 0.24184E+01    rms(broyden)= 0.24174E+01
  rms(prec ) = 0.37932E+01
  weight for this iteration     100.00

 Free energy of the ion-electron system (eV)
  ---------------------------------------------------
  alpha Z        PSCENC =       150.70794961
  Ewald energy   TEWEN  =     -4826.41036334
  -Hartree energ DENC   =     -1250.46207185
  -exchange      EXHF   =         0.00000000
  -V(xc)+E(xc)   XCENC  =       132.26952888
  PAW double counting   =      4688.19497969    -4454.14273673
  entropy T*S    EENTRO =         0.00054077
  eigenvalues    EBANDS =      -219.58285830
  atomic energy  EATOM  =      5615.46358700
  Solvation  Ediel_sol  =         0.00000000
  ---------------------------------------------------
  free energy    TOTEN  =      -163.96144426 eV

  energy without entropy =     -163.96198503  energy(sigma->0) =     -163.96162452


--------------------------------------------------------------------------------------------------------




--------------------------------------- Iteration      1(   6)  ---------------------------------------


    POTLOK:  cpu time     11.8692: real time     12.0474
    SETDIJ:  cpu time      0.8595: real time      0.8460
     EDDAV:  cpu time    147.9284: real time    148.5594
       DOS:  cpu time      0.0015: real time      0.0015
    CHARGE:  cpu time      8.7362: real time      8.6972
    MIXING:  cpu time      1.3415: real time      1.4749
    --------------------------------------------
      LOOP:  cpu time    170.7363: real time    171.6264

 eigenvalue-minimisations  :  2048
 total energy-change (2. order) : 0.1586911E+02  (-0.8801382E+01)
 number of electron      96.0000255 magnetization 
 augmentation part        7.8124803 magnetization 

 Broyden mixing:
  rms(total) = 0.77489E+00    rms(broyden)= 0.77348E+00
  rms(prec ) = 0.95941E+00
  weight for this iteration     100.00

 eigenvalues of (default mixing * dielectric matrix)
  average eigenvalue GAMMA=   0.9508
  0.9508

 Free energy of the ion-electron system (eV)
  ---------------------------------------------------
  alpha Z        PSCENC =       150.70794961
  Ewald energy   TEWEN  =     -4826.41036334
  -Hartree energ DENC   =     -1437.12809515
  -exchange      EXHF   =         0.00000000
  -V(xc)+E(xc)   XCENC  =       145.39113603
  PAW double counting   =      5997.69961492    -5767.14596369
  entropy T*S    EENTRO =         0.00018975
  eigenvalues    EBANDS =       -26.67039356
  atomic energy  EATOM  =      5615.46358700
  Solvation  Ediel_sol  =         0.00000000
  ---------------------------------------------------
  free energy    TOTEN  =      -148.09233843 eV

  energy without entropy =     -148.09252817  energy(sigma->0) =     -148.09240168


--------------------------------------------------------------------------------------------------------




--------------------------------------- Iteration      1(   7)  ---------------------------------------


    POTLOK:  cpu time     12.5432: real time     12.1430
    SETDIJ:  cpu time      0.8183: real time      0.8200
     EDDAV:  cpu time    263.0609: real time    262.0842
       DOS:  cpu time      0.0016: real time      0.0016
    CHARGE:  cpu time      8.8789: real time      8.9144
    MIXING:  cpu time      1.3441: real time      1.3709
    --------------------------------------------
      LOOP:  cpu time    286.6469: real time    285.3341

 eigenvalue-minimisations  :  4096
 total energy-change (2. order) : 0.5316469E-01  (-0.7383907E-01)
 number of electron      96.0000255 magnetization 
 augmentation part        7.7597714 magnetization 

 Broyden mixing:
  rms(total) = 0.46563E+00    rms(broyden)= 0.46554E+00
  rms(prec ) = 0.58000E+00
  weight for this iteration     100.00

 eigenvalues of (default mixing * dielectric matrix)
  average eigenvalue GAMMA=   1.5435
  1.0628  2.0241

 Free energy of the ion-electron system (eV)
  ---------------------------------------------------
  alpha Z        PSCENC =       150.70794961
  Ewald energy   TEWEN  =     -4826.41036334
  -Hartree energ DENC   =     -1450.09330803
  -exchange      EXHF   =         0.00000000
  -V(xc)+E(xc)   XCENC  =       146.54378633
  PAW double counting   =      6852.17514381    -6621.43226328
  entropy T*S    EENTRO =         0.00018878
  eigenvalues    EBANDS =       -14.99389462
  atomic energy  EATOM  =      5615.46358700
  Solvation  Ediel_sol  =         0.00000000
  ---------------------------------------------------
  free energy    TOTEN  =      -148.03917374 eV

  energy without entropy =     -148.03936252  energy(sigma->0) =     -148.03923667


--------------------------------------------------------------------------------------------------------




--------------------------------------- Iteration      1(   8)  ---------------------------------------


    POTLOK:  cpu time     11.9815: real time     12.0492
    SETDIJ:  cpu time      1.0318: real time      0.8586
     EDDAV:  cpu time    168.3166: real time    170.0131
       DOS:  cpu time      0.0015: real time      0.0015
    CHARGE:  cpu time      9.1441: real time      8.8795
    MIXING:  cpu time      1.3759: real time      1.3499
    --------------------------------------------
      LOOP:  cpu time    191.8514: real time    193.1519

 eigenvalue-minimisations  :  2432
 total energy-change (2. order) : 0.4044016E-03  (-0.1736415E-01)
 number of electron      96.0000255 magnetization 
 augmentation part        7.7708298 magnetization 

 Broyden mixing:
  rms(total) = 0.58348E-01    rms(broyden)= 0.58333E-01
  rms(prec ) = 0.82224E-01
  weight for this iteration     100.00

 eigenvalues of (default mixing * dielectric matrix)
  average eigenvalue GAMMA=   1.5321
  2.5004  1.0480  1.0480

 Free energy of the ion-electron system (eV)
  ---------------------------------------------------
  alpha Z        PSCENC =       150.70794961
  Ewald energy   TEWEN  =     -4826.41036334
  -Hartree energ DENC   =     -1460.21764866
  -exchange      EXHF   =         0.00000000
  -V(xc)+E(xc)   XCENC  =       147.69791632
  PAW double counting   =      7873.28295566    -7642.27388998
  entropy T*S    EENTRO =         0.00018900
  eigenvalues    EBANDS =        -6.28946496
  atomic energy  EATOM  =      5615.46358700
  Solvation  Ediel_sol  =         0.00000000
  ---------------------------------------------------
  free energy    TOTEN  =      -148.03876934 eV

  energy without entropy =     -148.03895834  energy(sigma->0) =     -148.03883234


--------------------------------------------------------------------------------------------------------




--------------------------------------- Iteration      1(   9)  ---------------------------------------


    POTLOK:  cpu time     12.8150: real time     12.3174
    SETDIJ:  cpu time      0.9000: real time      1.0459
     EDDAV:  cpu time    248.4804: real time    247.5908
       DOS:  cpu time      0.0017: real time      0.0017
    CHARGE:  cpu time      9.0150: real time      8.7393
    MIXING:  cpu time      1.4476: real time      1.4308
    --------------------------------------------
      LOOP:  cpu time    272.6597: real time    271.1258

 eigenvalue-minimisations  :  3840
 total energy-change (2. order) :-0.6022255E-02  (-0.1359613E-02)
 number of electron      96.0000255 magnetization 
 augmentation part        7.7591331 magnetization 

 Broyden mixing:
  rms(total) = 0.25617E-01    rms(broyden)= 0.25610E-01
  rms(prec ) = 0.28639E-01
  weight for this iteration     100.00

 eigenvalues of (default mixing * dielectric matrix)
  average eigenvalue GAMMA=   1.6994
  0.9938  0.9938  2.4049  2.4049

 Free energy of the ion-electron system (eV)
  ---------------------------------------------------
  alpha Z        PSCENC =       150.70794961
  Ewald energy   TEWEN  =     -4826.41036334
  -Hartree energ DENC   =     -1463.70114341
  -exchange      EXHF   =         0.00000000
  -V(xc)+E(xc)   XCENC  =       148.02686547
  PAW double counting   =      7980.52811427    -7749.53394256
  entropy T*S    EENTRO =         0.00018905
  eigenvalues    EBANDS =        -3.12604769
  atomic energy  EATOM  =      5615.46358700
  Solvation  Ediel_sol  =         0.00000000
  ---------------------------------------------------
  free energy    TOTEN  =      -148.04479159 eV

  energy without entropy =     -148.04498064  energy(sigma->0) =     -148.04485461


--------------------------------------------------------------------------------------------------------




--------------------------------------- Iteration      1(  10)  ---------------------------------------


    POTLOK:  cpu time     12.5978: real time     12.0434
    SETDIJ:  cpu time      1.0202: real time      1.0027
     EDDAV:  cpu time    162.0416: real time    162.0566
       DOS:  cpu time      0.0014: real time      0.0014
    CHARGE:  cpu time      9.1712: real time      8.8422
    MIXING:  cpu time      1.4430: real time      1.4552
    --------------------------------------------
      LOOP:  cpu time    186.2751: real time    185.4015

 eigenvalue-minimisations  :  2304
 total energy-change (2. order) :-0.1331581E-02  (-0.1237287E-03)
 number of electron      96.0000255 magnetization 
 augmentation part        7.7579039 magnetization 

 Broyden mixing:
  rms(total) = 0.63135E-02    rms(broyden)= 0.63116E-02
  rms(prec ) = 0.77462E-02
  weight for this iteration     100.00

 eigenvalues of (default mixing * dielectric matrix)
  average eigenvalue GAMMA=   1.6286
  2.7683  2.4485  1.0142  1.0142  0.8978

 Free energy of the ion-electron system (eV)
  ---------------------------------------------------
  alpha Z        PSCENC =       150.70794961
  Ewald energy   TEWEN  =     -4826.41036334
  -Hartree energ DENC   =     -1464.12766050
  -exchange      EXHF   =         0.00000000
  -V(xc)+E(xc)   XCENC  =       148.07320750
  PAW double counting   =      7914.16431245    -7683.19523572
  entropy T*S    EENTRO =         0.00018904
  eigenvalues    EBANDS =        -2.72210922
  atomic energy  EATOM  =      5615.46358700
  Solvation  Ediel_sol  =         0.00000000
  ---------------------------------------------------
  free energy    TOTEN  =      -148.04612317 eV

  energy without entropy =     -148.04631221  energy(sigma->0) =     -148.04618619


--------------------------------------------------------------------------------------------------------




--------------------------------------- Iteration      1(  11)  ---------------------------------------


    POTLOK:  cpu time     12.4531: real time     12.1211
    SETDIJ:  cpu time      0.9004: real time      0.8377
     EDDAV:  cpu time    246.3245: real time    247.5928
       DOS:  cpu time      0.0016: real time      0.0016
    CHARGE:  cpu time      9.2053: real time      8.6976
    MIXING:  cpu time      1.5185: real time      1.5218
    --------------------------------------------
      LOOP:  cpu time    270.4034: real time    270.7725

 eigenvalue-minimisations  :  3840
 total energy-change (2. order) :-0.1074645E-03  (-0.1996651E-04)
 number of electron      96.0000255 magnetization 
 augmentation part        7.7594460 magnetization 

 Broyden mixing:
  rms(total) = 0.81415E-03    rms(broyden)= 0.81271E-03
  rms(prec ) = 0.12485E-02
  weight for this iteration     100.00

 eigenvalues of (default mixing * dielectric matrix)
  average eigenvalue GAMMA=   1.6148
  2.7987  2.4201  1.5233  0.9121  1.0174  1.0174

 Free energy of the ion-electron system (eV)
  ---------------------------------------------------
  alpha Z        PSCENC =       150.70794961
  Ewald energy   TEWEN  =     -4826.41036334
  -Hartree energ DENC   =     -1464.06884397
  -exchange      EXHF   =         0.00000000
  -V(xc)+E(xc)   XCENC  =       148.07471231
  PAW double counting   =      7898.58689898    -7667.61909341
  entropy T*S    EENTRO =         0.00018905
  eigenvalues    EBANDS =        -2.78126687
  atomic energy  EATOM  =      5615.46358700
  Solvation  Ediel_sol  =         0.00000000
  ---------------------------------------------------
  free energy    TOTEN  =      -148.04623064 eV

  energy without entropy =     -148.04641968  energy(sigma->0) =     -148.04629365


--------------------------------------------------------------------------------------------------------




--------------------------------------- Iteration      1(  12)  ---------------------------------------


    POTLOK:  cpu time     12.4557: real time     12.1117
    SETDIJ:  cpu time      0.8457: real time      0.8326
     EDDAV:  cpu time    163.1915: real time    162.8221
       DOS:  cpu time      0.0014: real time      0.0014
    --------------------------------------------
      LOOP:  cpu time    176.4943: real time    175.7678

 eigenvalue-minimisations  :  2304
 total energy-change (2. order) : 0.3925734E-06  (-0.9371077E-06)
 number of electron      96.0000255 magnetization 
 augmentation part        7.7594460 magnetization 

 Free energy of the ion-electron system (eV)
  ---------------------------------------------------
  alpha Z        PSCENC =       150.70794961
  Ewald energy   TEWEN  =     -4826.41036334
  -Hartree energ DENC   =     -1464.07845600
  -exchange      EXHF   =         0.00000000
  -V(xc)+E(xc)   XCENC  =       148.07463896
  PAW double counting   =      7898.57813959    -7667.60973829
  entropy T*S    EENTRO =         0.00018904
  eigenvalues    EBANDS =        -2.77217682
  atomic energy  EATOM  =      5615.46358700
  Solvation  Ediel_sol  =         0.00000000
  ---------------------------------------------------
  free energy    TOTEN  =      -148.04623025 eV

  energy without entropy =     -148.04641929  energy(sigma->0) =     -148.04629326


--------------------------------------------------------------------------------------------------------




 average (electrostatic) potential at core
  the test charge radii are     1.0406  0.7215
  (the norm of the test charge is              1.0000)
       1 -71.6048       2 -71.6048       3 -71.6048       4 -71.6048       5 -71.6048
       6 -71.6048       7 -71.6048       8 -71.6048       9 -67.0370      10 -67.0370
      11 -67.0370      12 -67.0370      13 -67.0370      14 -67.0370      15 -67.0370
      16 -67.0370      17 -66.9311      18 -66.9311      19 -66.9311      20 -66.9311



 E-fermi :   6.2736     XC(G=0): -11.7219     alpha+bet :-16.7072

 Fermi energy:         6.2736413520

 k-point     1 :       0.1250    0.1250    0.1250
  band No.  band energies     occupation 
      1     -12.7493      2.00000
      2     -11.7941      2.00000
      3     -10.9646      2.00000
      4     -10.9127      2.00000
      5     -10.8555      2.00000
      6     -10.5196      2.00000
      7     -10.3656      2.00000
      8     -10.2068      2.00000
      9     -10.1541      2.00000
     10     -10.0994      2.00000
     11      -9.9791      2.00000
     12      -9.7880      2.00000
     13       0.0327      2.00000
     14       0.2132      2.00000
     15       0.2716      2.00000
     16       0.4066      2.00000
     17       0.9615      2.00000
     18       1.0818      2.00000
     19       1.1088      2.00000
     20       1.3904      2.00000
     21       1.5694      2.00000
     22       1.9452      2.00000
     23       2.0328      2.00000
     24       2.2545      2.00000
     25       2.2882      2.00000
     26       2.6775      2.00000
     27       3.2567      2.00000
     28       3.4783      2.00000
     29       3.6818      2.00000
     30       3.9776      2.00000
     31       4.0289      2.00000
     32       4.2940      2.00000
     33       4.3379      2.00000
     34       4.6442      2.00000
     35       4.8342      2.00000
     36       5.0159      2.00000
     37       5.1159      2.00000
     38       5.1192      2.00000
     39       5.2309      2.00000
     40       5.4019      2.00000
     41       5.5013      2.00000
     42       5.5626      2.00000
     43       5.6279      2.00000
     44       5.7924      2.00000
     45       5.8955      2.00000
     46       5.9676      2.00000
     47       6.1260      2.00000
     48       6.2518      1.99992
     49      12.2323      0.00000
     50      14.6765      0.00000
     51      14.9039      0.00000
     52      15.2543      0.00000
     53      15.4561      0.00000
     54      16.0144      0.00000
     55      16.2751      0.00000
     56      16.3831      0.00000
     57      16.6989      0.00000
     58      16.9101      0.00000
     59      17.1680      0.00000
     60      17.3071      0.00000
     61      17.7760      0.00000
     62      18.1049      0.00000
     63      18.3935      0.00000
     64      18.5007      0.00000
     65      18.5167      0.00000
     66      18.7189      0.00000
     67      18.9587      0.00000
     68      19.1745      0.00000
     69      19.4855      0.00000
     70      19.6434      0.00000
     71      19.7375      0.00000
     72      19.9659      0.00000
     73      20.2995      0.00000
     74      20.3546      0.00000
     75      20.9938      0.00000
     76      21.0369      0.00000
     77      21.2942      0.00000
     78      21.4658      0.00000
     79      21.6051      0.00000
     80      22.2316      0.00000
     81      22.3018      0.00000
     82      22.3676      0.00000
     83      22.6123      0.00000
     84      23.0830      0.00000
     85      23.1818      0.00000
     86      23.3534      0.00000
     87      23.4730      0.00000
     88      23.8203      0.00000
     89      24.5024      0.00000
     90      24.8325      0.00000
     91      24.9870      0.00000
     92      25.4162      0.00000
     93      25.5352      0.00000
     94      26.1205      0.00000
     95      26.4051      0.00000
     96      26.6449      0.00000
     97      27.1001      0.00000
     98      27.4452      0.00000
     99      27.7519      0.00000
    100      28.0820      0.00000
    101      28.6266      0.00000
    102      28.8090      0.00000
    103      29.0610      0.00000
    104      29.2160      0.00000
    105      29.3613      0.00000
    106      29.6192      0.00000
    107      29.7810      0.00000
    108      29.9914      0.00000
    109      30.6277      0.00000
    110      30.8100      0.00000
    111      31.0550      0.00000
    112      31.3490      0.00000
    113      31.4143      0.00000
    114      31.5614      0.00000
    115      31.8283      0.00000
    116      32.4640      0.00000
    117      32.5324      0.00000
    118      33.0015      0.00000
    119      33.1960      0.00000
    120      33.3811      0.00000
    121      33.7107      0.00000
    122      33.8482      0.00000
    123      33.9485      0.00000
    124      34.1422      0.00000
    125      34.4233      0.00000
    126      34.5141      0.00000
    127      34.7607      0.00000
    128      34.8795      0.00000

 k-point     2 :       0.3750    0.1250    0.1250
  band No.  band energies     occupation 
      1     -12.3409      2.00000
      2     -11.6799      2.00000
      3     -11.4147      2.00000
      4     -11.0161      2.00000
      5     -10.7062      2.00000
      6     -10.6126      2.00000
      7     -10.4487      2.00000
      8     -10.3152      2.00000
      9     -10.2528      2.00000
     10     -10.0996      2.00000
     11      -9.9120      2.00000
     12      -9.8057      2.00000
     13      -0.0176      2.00000
     14       0.2309      2.00000
     15       0.3439      2.00000
     16       0.6344      2.00000
     17       0.7146      2.00000
     18       1.0128      2.00000
     19       1.1702      2.00000
     20       1.2125      2.00000
     21       1.5496      2.00000
     22       2.0968      2.00000
     23       2.3028      2.00000
     24       2.5526      2.00000
     25       2.6505      2.00000
     26       3.1191      2.00000
     27       3.4636      2.00000
     28       3.6071      2.00000
     29       3.8812      2.00000
     30       3.9064      2.00000
     31       3.9944      2.00000
     32       4.1409      2.00000
     33       4.3028      2.00000
     34       4.5511      2.00000
     35       4.6476      2.00000
     36       4.8367      2.00000
     37       4.9288      2.00000
     38       5.0813      2.00000
     39       5.1725      2.00000
     40       5.3275      2.00000
     41       5.4748      2.00000
     42       5.5517      2.00000
     43       5.6425      2.00000
     44       5.6599      2.00000
     45       5.7990      2.00000
     46       5.8173      2.00000
     47       6.1698      2.00000
     48       6.1756      2.00000
     49      13.5528      0.00000
     50      14.5891      0.00000
     51      14.6688      0.00000
     52      15.0527      0.00000
     53      15.2251      0.00000
     54      15.5936      0.00000
     55      15.8490      0.00000
     56      16.3626      0.00000
     57      16.5617      0.00000
     58      16.7067      0.00000
     59      16.8053      0.00000
     60      16.9105      0.00000
     61      17.2948      0.00000
     62      17.5374      0.00000
     63      17.8434      0.00000
     64      18.5782      0.00000
     65      18.7013      0.00000
     66      18.7491      0.00000
     67      19.4026      0.00000
     68      19.7299      0.00000
     69      19.8786      0.00000
     70      20.0360      0.00000
     71      20.1488      0.00000
     72      20.3346      0.00000
     73      20.3890      0.00000
     74      20.5287      0.00000
     75      20.8208      0.00000
     76      20.9439      0.00000
     77      21.3354      0.00000
     78      21.5715      0.00000
     79      21.7050      0.00000
     80      22.0689      0.00000
     81      22.2522      0.00000
     82      22.3010      0.00000
     83      22.4807      0.00000
     84      22.6556      0.00000
     85      22.9414      0.00000
     86      23.1445      0.00000
     87      23.2931      0.00000
     88      23.5898      0.00000
     89      23.8154      0.00000
     90      24.1157      0.00000
     91      24.4420      0.00000
     92      24.8362      0.00000
     93      25.1561      0.00000
     94      25.8734      0.00000
     95      26.4057      0.00000
     96      26.7200      0.00000
     97      27.1200      0.00000
     98      27.4887      0.00000
     99      27.8190      0.00000
    100      28.5678      0.00000
    101      28.8556      0.00000
    102      29.1408      0.00000
    103      29.3840      0.00000
    104      29.4703      0.00000
    105      29.8863      0.00000
    106      30.0685      0.00000
    107      30.3148      0.00000
    108      30.8188      0.00000
    109      30.9045      0.00000
    110      31.2090      0.00000
    111      31.4539      0.00000
    112      31.6698      0.00000
    113      31.9083      0.00000
    114      31.9849      0.00000
    115      32.1276      0.00000
    116      32.5647      0.00000
    117      32.9302      0.00000
    118      33.0969      0.00000
    119      33.4298      0.00000
    120      33.5952      0.00000
    121      33.7326      0.00000
    122      33.7372      0.00000
    123      34.0556      0.00000
    124      34.1793      0.00000
    125      34.3152      0.00000
    126      34.5546      0.00000
    127      35.0188      0.00000
    128      35.1482      0.00000

 k-point     3 :       0.1250    0.3750    0.1250
  band No.  band energies     occupation 
      1     -12.3570      2.00000
      2     -11.6760      2.00000
      3     -11.4606      2.00000
      4     -10.9294      2.00000
      5     -10.7046      2.00000
      6     -10.6485      2.00000
      7     -10.4502      2.00000
      8     -10.3782      2.00000
      9     -10.1579      2.00000
     10     -10.0108      2.00000
     11      -9.9815      2.00000
     12      -9.8934      2.00000
     13       0.1528      2.00000
     14       0.3162      2.00000
     15       0.4799      2.00000
     16       0.7334      2.00000
     17       0.8439      2.00000
     18       1.2008      2.00000
     19       1.4106      2.00000
     20       1.6841      2.00000
     21       1.8986      2.00000
     22       2.0979      2.00000
     23       2.1694      2.00000
     24       2.4948      2.00000
     25       2.6714      2.00000
     26       2.9430      2.00000
     27       3.1762      2.00000
     28       3.2540      2.00000
     29       3.5952      2.00000
     30       3.6407      2.00000
     31       3.7847      2.00000
     32       3.8885      2.00000
     33       4.2875      2.00000
     34       4.4527      2.00000
     35       4.6413      2.00000
     36       4.7596      2.00000
     37       4.8099      2.00000
     38       4.9848      2.00000
     39       5.0602      2.00000
     40       5.1908      2.00000
     41       5.2906      2.00000
     42       5.3632      2.00000
     43       5.5545      2.00000
     44       5.6952      2.00000
     45       5.9266      2.00000
     46       6.0215      2.00000
     47       6.1405      2.00000
     48       6.1914      2.00007
     49      13.5461      0.00000
     50      14.7676      0.00000
     51      15.0592      0.00000
     52      15.1441      0.00000
     53      15.2336      0.00000
     54      15.4308      0.00000
     55      16.0664      0.00000
     56      16.3604      0.00000
     57      16.8366      0.00000
     58      17.0330      0.00000
     59      17.2385      0.00000
     60      17.4155      0.00000
     61      17.8618      0.00000
     62      17.8816      0.00000
     63      18.2364      0.00000
     64      18.2861      0.00000
     65      18.5317      0.00000
     66      18.7967      0.00000
     67      18.9294      0.00000
     68      19.0837      0.00000
     69      19.1934      0.00000
     70      19.6870      0.00000
     71      20.2088      0.00000
     72      20.2970      0.00000
     73      20.8095      0.00000
     74      20.9850      0.00000
     75      21.0109      0.00000
     76      21.1457      0.00000
     77      21.3817      0.00000
     78      21.5043      0.00000
     79      21.7290      0.00000
     80      21.8511      0.00000
     81      22.1267      0.00000
     82      22.3543      0.00000
     83      22.4780      0.00000
     84      22.5873      0.00000
     85      22.6172      0.00000
     86      22.6972      0.00000
     87      23.1791      0.00000
     88      23.7909      0.00000
     89      24.1624      0.00000
     90      24.3267      0.00000
     91      24.7213      0.00000
     92      25.0702      0.00000
     93      25.2178      0.00000
     94      25.8036      0.00000
     95      26.0227      0.00000
     96      26.4202      0.00000
     97      27.2957      0.00000
     98      27.9259      0.00000
     99      28.0902      0.00000
    100      28.4919      0.00000
    101      28.6621      0.00000
    102      28.9308      0.00000
    103      29.1765      0.00000
    104      29.3285      0.00000
    105      29.7751      0.00000
    106      29.9979      0.00000
    107      30.5027      0.00000
    108      30.7644      0.00000
    109      30.8777      0.00000
    110      30.9920      0.00000
    111      31.2744      0.00000
    112      31.3716      0.00000
    113      31.7211      0.00000
    114      32.0186      0.00000
    115      32.1818      0.00000
    116      32.3388      0.00000
    117      32.7661      0.00000
    118      33.0164      0.00000
    119      33.1781      0.00000
    120      33.3414      0.00000
    121      33.7567      0.00000
    122      33.9393      0.00000
    123      34.1451      0.00000
    124      34.4769      0.00000
    125      34.5083      0.00000
    126      34.5911      0.00000
    127      34.8331      0.00000
    128      35.4247      0.00000

 k-point     4 :       0.3750    0.3750    0.1250
  band No.  band energies     occupation 
      1     -11.9816      2.00000
      2     -11.3837      2.00000
      3     -11.3818      2.00000
      4     -11.1837      2.00000
      5     -10.7931      2.00000
      6     -10.7013      2.00000
      7     -10.6502      2.00000
      8     -10.5842      2.00000
      9     -10.1538      2.00000
     10     -10.1019      2.00000
     11     -10.0667      2.00000
     12      -9.9369      2.00000
     13       0.3639      2.00000
     14       0.4307      2.00000
     15       0.5167      2.00000
     16       0.7320      2.00000
     17       1.0411      2.00000
     18       1.2665      2.00000
     19       1.5258      2.00000
     20       1.6975      2.00000
     21       1.9036      2.00000
     22       2.1231      2.00000
     23       2.2252      2.00000
     24       2.6809      2.00000
     25       2.8553      2.00000
     26       2.9301      2.00000
     27       3.1622      2.00000
     28       3.3412      2.00000
     29       3.4467      2.00000
     30       3.6465      2.00000
     31       3.8142      2.00000
     32       4.0252      2.00000
     33       4.2730      2.00000
     34       4.3661      2.00000
     35       4.6955      2.00000
     36       4.7092      2.00000
     37       4.7803      2.00000
     38       4.9208      2.00000
     39       5.0509      2.00000
     40       5.1730      2.00000
     41       5.1958      2.00000
     42       5.3924      2.00000
     43       5.4675      2.00000
     44       5.5564      2.00000
     45       5.7642      2.00000
     46       5.9522      2.00000
     47       6.0851      2.00000
     48       6.1424      2.00000
     49      14.3998      0.00000
     50      14.8299      0.00000
     51      14.9812      0.00000
     52      15.1322      0.00000
     53      15.4647      0.00000
     54      15.6297      0.00000
     55      15.8119      0.00000
     56      15.9858      0.00000
     57      16.3902      0.00000
     58      16.5828      0.00000
     59      16.7542      0.00000
     60      16.9117      0.00000
     61      17.0400      0.00000
     62      17.3923      0.00000
     63      17.9342      0.00000
     64      18.0482      0.00000
     65      18.6298      0.00000
     66      18.8197      0.00000
     67      19.3297      0.00000
     68      19.4536      0.00000
     69      19.6416      0.00000
     70      20.0254      0.00000
     71      20.1620      0.00000
     72      20.4993      0.00000
     73      20.5988      0.00000
     74      20.7556      0.00000
     75      20.9803      0.00000
     76      21.2382      0.00000
     77      21.5392      0.00000
     78      21.6933      0.00000
     79      21.7697      0.00000
     80      21.9396      0.00000
     81      22.2397      0.00000
     82      22.2762      0.00000
     83      22.4006      0.00000
     84      22.4222      0.00000
     85      22.6054      0.00000
     86      22.8721      0.00000
     87      23.2067      0.00000
     88      23.6659      0.00000
     89      23.9946      0.00000
     90      24.3483      0.00000
     91      24.8586      0.00000
     92      24.9811      0.00000
     93      25.1139      0.00000
     94      25.7863      0.00000
     95      26.0180      0.00000
     96      26.4156      0.00000
     97      27.1033      0.00000
     98      27.2248      0.00000
     99      27.4390      0.00000
    100      28.2600      0.00000
    101      29.1204      0.00000
    102      29.3842      0.00000
    103      29.6932      0.00000
    104      29.7907      0.00000
    105      29.8574      0.00000
    106      30.3544      0.00000
    107      30.5541      0.00000
    108      30.6973      0.00000
    109      30.8694      0.00000
    110      31.0394      0.00000
    111      31.1312      0.00000
    112      31.4156      0.00000
    113      32.0174      0.00000
    114      32.2737      0.00000
    115      32.3565      0.00000
    116      32.9000      0.00000
    117      32.9396      0.00000
    118      33.0698      0.00000
    119      33.1896      0.00000
    120      33.7218      0.00000
    121      33.8295      0.00000
    122      33.9519      0.00000
    123      34.3751      0.00000
    124      34.5993      0.00000
    125      34.7405      0.00000
    126      34.9271      0.00000
    127      35.1624      0.00000
    128      35.5387      0.00000

 k-point     5 :       0.1250    0.1250    0.3750
  band No.  band energies     occupation 
      1     -12.5566      2.00000
      2     -12.2030      2.00000
      3     -10.8824      2.00000
      4     -10.8056      2.00000
      5     -10.6604      2.00000
      6     -10.5525      2.00000
      7     -10.4962      2.00000
      8     -10.2122      2.00000
      9     -10.0992      2.00000
     10     -10.0281      2.00000
     11     -10.0104      2.00000
     12      -9.8683      2.00000
     13      -0.0042      2.00000
     14       0.1214      2.00000
     15       0.3602      2.00000
     16       0.4624      2.00000
     17       0.6659      2.00000
     18       0.7313      2.00000
     19       1.2357      2.00000
     20       1.3267      2.00000
     21       1.6969      2.00000
     22       1.8033      2.00000
     23       2.1375      2.00000
     24       2.4492      2.00000
     25       2.7179      2.00000
     26       3.0785      2.00000
     27       3.3765      2.00000
     28       3.4373      2.00000
     29       3.6725      2.00000
     30       3.9196      2.00000
     31       3.9344      2.00000
     32       4.1341      2.00000
     33       4.3734      2.00000
     34       4.7000      2.00000
     35       4.8204      2.00000
     36       4.9390      2.00000
     37       4.9810      2.00000
     38       5.0668      2.00000
     39       5.1255      2.00000
     40       5.2559      2.00000
     41       5.4019      2.00000
     42       5.4801      2.00000
     43       5.6309      2.00000
     44       5.8200      2.00000
     45       5.9720      2.00000
     46       6.0486      2.00000
     47       6.1640      2.00000
     48       6.1754      2.00000
     49      12.9339      0.00000
     50      13.8994      0.00000
     51      15.3217      0.00000
     52      15.6996      0.00000
     53      15.7186      0.00000
     54      15.9463      0.00000
     55      16.1248      0.00000
     56      16.3474      0.00000
     57      16.4672      0.00000
     58      16.6333      0.00000
     59      17.0294      0.00000
     60      17.3507      0.00000
     61      17.7082      0.00000
     62      17.8305      0.00000
     63      17.9624      0.00000
     64      18.1472      0.00000
     65      18.6999      0.00000
     66      18.7777      0.00000
     67      19.1175      0.00000
     68      19.2667      0.00000
     69      19.4330      0.00000
     70      19.5288      0.00000
     71      19.7732      0.00000
     72      19.8375      0.00000
     73      20.7019      0.00000
     74      20.7319      0.00000
     75      21.0059      0.00000
     76      21.0230      0.00000
     77      21.5482      0.00000
     78      21.6121      0.00000
     79      21.8032      0.00000
     80      22.2031      0.00000
     81      22.3326      0.00000
     82      22.4622      0.00000
     83      22.5566      0.00000
     84      22.8071      0.00000
     85      23.0969      0.00000
     86      23.3081      0.00000
     87      23.5348      0.00000
     88      23.6675      0.00000
     89      24.3842      0.00000
     90      24.8052      0.00000
     91      24.9976      0.00000
     92      25.2052      0.00000
     93      25.7976      0.00000
     94      26.1090      0.00000
     95      26.3375      0.00000
     96      26.6229      0.00000
     97      27.0004      0.00000
     98      27.3541      0.00000
     99      27.6754      0.00000
    100      27.9265      0.00000
    101      28.4913      0.00000
    102      28.6857      0.00000
    103      28.7117      0.00000
    104      29.0104      0.00000
    105      29.3842      0.00000
    106      29.6596      0.00000
    107      29.9604      0.00000
    108      30.4142      0.00000
    109      30.6227      0.00000
    110      30.8864      0.00000
    111      31.3001      0.00000
    112      31.3253      0.00000
    113      31.8164      0.00000
    114      31.9211      0.00000
    115      32.1580      0.00000
    116      32.4879      0.00000
    117      32.6157      0.00000
    118      32.7060      0.00000
    119      33.3689      0.00000
    120      33.5538      0.00000
    121      33.7422      0.00000
    122      33.8139      0.00000
    123      33.9829      0.00000
    124      34.1075      0.00000
    125      34.3642      0.00000
    126      34.5441      0.00000
    127      34.8474      0.00000
    128      34.8900      0.00000

 k-point     6 :       0.3750    0.1250    0.3750
  band No.  band energies     occupation 
      1     -12.1666      2.00000
      2     -11.8623      2.00000
      3     -11.4498      2.00000
      4     -11.2245      2.00000
      5     -10.6247      2.00000
      6     -10.5419      2.00000
      7     -10.4406      2.00000
      8     -10.3188      2.00000
      9     -10.1457      2.00000
     10     -10.0139      2.00000
     11      -9.9500      2.00000
     12      -9.8383      2.00000
     13      -0.0895      2.00000
     14       0.0534      2.00000
     15       0.1638      2.00000
     16       0.1974      2.00000
     17       0.9103      2.00000
     18       1.1841      2.00000
     19       1.3047      2.00000
     20       1.3972      2.00000
     21       1.8518      2.00000
     22       2.1783      2.00000
     23       2.4301      2.00000
     24       2.7128      2.00000
     25       2.8388      2.00000
     26       2.9867      2.00000
     27       3.1591      2.00000
     28       3.5576      2.00000
     29       3.8082      2.00000
     30       3.8145      2.00000
     31       3.9900      2.00000
     32       4.2235      2.00000
     33       4.3382      2.00000
     34       4.5478      2.00000
     35       4.6211      2.00000
     36       4.7705      2.00000
     37       4.8724      2.00000
     38       5.0416      2.00000
     39       5.0948      2.00000
     40       5.2036      2.00000
     41       5.3821      2.00000
     42       5.5193      2.00000
     43       5.7154      2.00000
     44       5.7678      2.00000
     45       5.9135      2.00000
     46       5.9790      2.00000
     47       6.0680      2.00000
     48       6.1028      2.00000
     49      13.9832      0.00000
     50      14.4461      0.00000
     51      14.9805      0.00000
     52      15.1653      0.00000
     53      15.2896      0.00000
     54      15.7000      0.00000
     55      15.8726      0.00000
     56      16.1020      0.00000
     57      16.3801      0.00000
     58      16.5111      0.00000
     59      16.8329      0.00000
     60      16.9547      0.00000
     61      17.2038      0.00000
     62      17.3640      0.00000
     63      17.8683      0.00000
     64      18.2596      0.00000
     65      18.7918      0.00000
     66      18.9766      0.00000
     67      19.2316      0.00000
     68      19.3790      0.00000
     69      19.8926      0.00000
     70      20.0085      0.00000
     71      20.1479      0.00000
[...]
     10      -9.8775      2.00000
     11      -9.8425      2.00000
     12      -9.7073      2.00000
     13       0.3228      2.00000
     14       0.4012      2.00000
     15       0.6216      2.00000
     16       0.6451      2.00000
     17       1.1367      2.00000
     18       1.4108      2.00000
     19       1.4507      2.00000
     20       1.7830      2.00000
     21       1.9707      2.00000
     22       2.1111      2.00000
     23       2.5099      2.00000
     24       2.7117      2.00000
     25       2.8436      2.00000
     26       3.2751      2.00000
     27       3.5266      2.00000
     28       3.6023      2.00000
     29       3.8173      2.00000
     30       3.9199      2.00000
     31       4.2399      2.00000
     32       4.4073      2.00000
     33       4.5013      2.00000
     34       4.5550      2.00000
     35       4.6827      2.00000
     36       4.9160      2.00000
     37       5.0483      2.00000
     38       5.2103      2.00000
     39       5.2625      2.00000
     40       5.3376      2.00000
     41       5.5764      2.00000
     42       5.6408      2.00000
     43       5.7756      2.00000
     44       5.8434      2.00000
     45       6.1637      2.00000
     46       6.2238      2.00000
     47       6.3361      2.00000
     48       6.3924      2.00000
     49      14.4576      0.00000
     50      15.0480      0.00000
     51      15.5423      0.00000
     52      15.6267      0.00000
     53      15.9092      0.00000
     54      16.2325      0.00000
     55      16.4593      0.00000
     56      16.8372      0.00000
     57      16.9666      0.00000
     58      17.0471      0.00000
     59      17.3608      0.00000
     60      17.5396      0.00000
     61      18.3565      0.00000
     62      18.3707      0.00000
     63      18.5286      0.00000
     64      18.6530      0.00000
     65      19.4687      0.00000
     66      19.5272      0.00000
     67      19.7115      0.00000
     68      19.8338      0.00000
     69      20.0573      0.00000
     70      20.2001      0.00000
     71      20.6167      0.00000
     72      20.6368      0.00000
     73      20.8686      0.00000
     74      21.2754      0.00000
     75      21.3449      0.00000
     76      21.6279      0.00000
     77      21.9097      0.00000
     78      22.1770      0.00000
     79      22.2617      0.00000
     80      22.4812      0.00000
     81      22.7378      0.00000
     82      22.8781      0.00000
     83      23.0146      0.00000
     84      23.1634      0.00000
     85      23.2929      0.00000
     86      23.4761      0.00000
     87      23.5610      0.00000
     88      23.8327      0.00000
     89      24.6791      0.00000
     90      24.8852      0.00000
     91      25.1334      0.00000
     92      25.5284      0.00000
     93      26.0093      0.00000
     94      26.2018      0.00000
     95      26.7286      0.00000
     96      26.8953      0.00000
     97      27.9701      0.00000
     98      28.1045      0.00000
     99      28.6067      0.00000
    100      28.7570      0.00000
    101      28.9277      0.00000
    102      29.3131      0.00000
    103      29.3781      0.00000
    104      29.7205      0.00000
    105      30.3929      0.00000
    106      30.7003      0.00000
    107      30.9670      0.00000
    108      31.0634      0.00000
    109      31.6384      0.00000
    110      32.0420      0.00000
    111      32.3061      0.00000
    112      32.6408      0.00000
    113      32.7944      0.00000
    114      32.9951      0.00000
    115      33.1449      0.00000
    116      33.2531      0.00000
    117      33.4895      0.00000
    118      33.8255      0.00000
    119      34.0479      0.00000
    120      34.1858      0.00000
    121      34.2299      0.00000
    122      34.6404      0.00000
    123      34.8025      0.00000
    124      35.0216      0.00000
    125      35.1701      0.00000
    126      35.3323      0.00000
    127      35.6402      0.00000
    128      35.8591      0.00000

 k-point     8 :       0.3750    0.3750    0.3750
  band No.  band energies     occupation 
      1     -11.6921      2.00000
      2     -11.4002      2.00000
      3     -11.1277      2.00000
      4     -11.0839      2.00000
      5     -10.7516      2.00000
      6     -10.7116      2.00000
      7     -10.5227      2.00000
      8     -10.3835      2.00000
      9      -9.8974      2.00000
     10      -9.8361      2.00000
     11      -9.7454      2.00000
     12      -9.6673      2.00000
     13       0.4425      2.00000
     14       0.4769      2.00000
     15       0.6734      2.00000
     16       0.7280      2.00000
     17       1.3341      2.00000
     18       1.5333      2.00000
     19       1.5370      2.00000
     20       1.8725      2.00000
     21       2.2181      2.00000
     22       2.3110      2.00000
     23       2.6272      2.00000
     24       2.6748      2.00000
     25       2.8435      2.00000
     26       3.0629      2.00000
     27       3.3667      2.00000
     28       3.4138      2.00000
     29       3.9875      2.00000
     30       4.0305      2.00000
     31       4.1516      2.00000
     32       4.3387      2.00000
     33       4.6164      2.00000
     34       4.6565      2.00000
     35       4.8736      2.00000
     36       4.8902      2.00000
     37       4.9434      2.00000
     38       5.1380      2.00000
     39       5.1773      2.00000
     40       5.3678      2.00000
     41       5.5273      2.00000
     42       5.6135      2.00000
     43       5.8177      2.00000
     44       5.8762      2.00000
     45       5.9547      2.00000
     46       6.1378      2.00000
     47       6.2022      2.00000
     48       6.2754      2.00000
     49      15.1283      0.00000
     50      15.3363      0.00000
     51      15.4572      0.00000
     52      15.5399      0.00000
     53      15.8404      0.00000
     54      15.9206      0.00000
     55      16.4701      0.00000
     56      16.5979      0.00000
     57      16.7898      0.00000
     58      16.8398      0.00000
     59      17.0660      0.00000
     60      17.1342      0.00000
     61      17.7073      0.00000
     62      17.9051      0.00000
     63      18.4038      0.00000
     64      18.4249      0.00000
     65      19.4505      0.00000
     66      19.5946      0.00000
     67      19.8023      0.00000
     68      20.0071      0.00000
     69      20.2991      0.00000
     70      20.5466      0.00000
     71      20.7148      0.00000
     72      20.8629      0.00000
     73      20.9768      0.00000
     74      21.1568      0.00000
     75      21.3482      0.00000
     76      21.5686      0.00000
     77      21.8519      0.00000
     78      21.9879      0.00000
     79      22.0847      0.00000
     80      22.3148      0.00000
     81      22.6083      0.00000
     82      22.6534      0.00000
     83      22.8569      0.00000
     84      22.9400      0.00000
     85      23.2140      0.00000
     86      23.3758      0.00000
     87      23.5798      0.00000
     88      23.7422      0.00000
     89      24.8955      0.00000
     90      25.0375      0.00000
     91      25.3119      0.00000
     92      25.5053      0.00000
     93      25.7859      0.00000
     94      26.0369      0.00000
     95      26.9917      0.00000
     96      27.1525      0.00000
     97      28.0176      0.00000
     98      28.3823      0.00000
     99      28.7991      0.00000
    100      28.8317      0.00000
    101      29.7776      0.00000
    102      29.9233      0.00000
    103      30.3333      0.00000
    104      30.3905      0.00000
    105      30.6252      0.00000
    106      30.9114      0.00000
    107      31.0843      0.00000
    108      31.1805      0.00000
    109      31.3535      0.00000
    110      31.8085      0.00000
    111      31.8635      0.00000
    112      32.0065      0.00000
    113      32.2062      0.00000
    114      32.7407      0.00000
    115      32.7901      0.00000
    116      33.1533      0.00000
    117      33.3570      0.00000
    118      33.6598      0.00000
    119      33.7918      0.00000
    120      33.8607      0.00000
    121      34.5204      0.00000
    122      34.8227      0.00000
    123      35.0195      0.00000
    124      35.2899      0.00000
    125      35.5414      0.00000
    126      35.6994      0.00000
    127      35.8431      0.00000
    128      36.1290      0.00000


--------------------------------------------------------------------------------------------------------


 soft charge-density along one line, spin component           1
         0         1         2         3         4         5         6         7         8         9
 total charge-density along one line

 pseudopotential strength for first ion, spin component:           1
  8.380  14.280   0.002  -0.001  -0.000   0.008  -0.003  -0.000
 14.280  24.335   0.004  -0.002  -0.000   0.013  -0.005  -0.000
  0.002   0.004   1.982  -0.000   0.000   5.706  -0.000   0.001
 -0.001  -0.002  -0.000   1.982  -0.000  -0.000   5.706  -0.001
 -0.000  -0.000   0.000  -0.000   1.982   0.001  -0.001   5.706
  0.008   0.013   5.706  -0.000   0.001  16.346  -0.001   0.002
 -0.003  -0.005  -0.000   5.706  -0.001  -0.001  16.347  -0.002
 -0.000  -0.000   0.001  -0.001   5.706   0.002  -0.002  16.346
 total augmentation occupancy for first ion, spin component:           1
  5.238  -1.890  -0.191   0.112   0.012   0.027  -0.020  -0.002
 -1.890   0.717   0.064  -0.058  -0.005  -0.009   0.009   0.001
 -0.191   0.064   1.544   0.054  -0.075  -0.150  -0.008   0.010
  0.112  -0.058   0.054   1.442   0.094  -0.008  -0.139  -0.011
  0.012  -0.005  -0.075   0.094   1.598   0.010  -0.011  -0.156
  0.027  -0.009  -0.150  -0.008   0.010   0.016   0.001  -0.001
 -0.020   0.009  -0.008  -0.139  -0.011   0.001   0.015   0.001
 -0.002   0.001   0.010  -0.011  -0.156  -0.001   0.001   0.017


------------------------ aborting loop because EDIFF is reached ----------------------------------------


    CHARGE:  cpu time      8.9137: real time      8.8215
    FORLOC:  cpu time      4.4085: real time      4.3330
    FORNL :  cpu time     78.7563: real time     78.4501
    STRESS:  cpu time    231.9675: real time    231.8361
    FORCOR:  cpu time     15.2092: real time     14.8229
    FORHAR:  cpu time      5.9449: real time      6.1532
    MIXING:  cpu time      1.3374: real time      1.3009
    OFIELD:  cpu time      0.0000: real time      0.0000

  FORCE on cell =-STRESS in cart. coord.  units (eV):
  Direction    XX          YY          ZZ          XY          YZ          ZX
  --------------------------------------------------------------------------------------
  Alpha Z   154.24362   154.24362   154.24362
  Ewald   -1577.70106 -1625.93489 -1660.96460    -0.00000     0.00000    -0.00000
  Hartree   486.76999   476.15544   486.65350     0.00000     0.00000    -0.00000
  E(xc)    -443.89847  -443.78864  -443.33268     0.00000    -0.00000    -0.00000
  Local    -271.59086  -214.93133  -196.36067    -0.00000    -0.00001     0.00000
  n-local  -175.04581  -177.04512  -182.82491     0.11677     0.10728     0.07770
  augment    76.16986    76.36033    77.14540     0.00000    -0.00000     0.00000
  Kinetic  1751.04367  1754.94217  1765.43313    -0.47387    -0.65265    -0.22867
  Fock        0.00000     0.00000     0.00000     0.00000     0.00000     0.00000
  -------------------------------------------------------------------------------------
  Total      -0.00906     0.00159    -0.00721     0.00000     0.00000     0.00000
  in kB      -0.08675     0.01518    -0.06905     0.00000     0.00000     0.00000
  external pressure =       -0.05 kB  Pullay stress =        0.00 kB


 VOLUME and BASIS-vectors are now :
 -----------------------------------------------------------------------------
  energy-cutoff  :      400.00
  volume of cell :      167.39
      direct lattice vectors                 reciprocal lattice vectors
     4.810536680  0.000000000  0.000000000     0.207877014  0.000000000 -0.000000000
    -0.000000000  4.947510270  0.000000000    -0.000000000  0.202121864  0.000000000
     0.000000000  0.000000000  7.033292968     0.000000000 -0.000000000  0.142180911

  length of vectors
     4.810536680  4.947510270  7.033292968     0.207877014  0.202121864  0.142180911


 FORCES acting on ions
    electron-ion (+dipol)            ewald-force                    non-local-force                 convergence-correction
 -----------------------------------------------------------------------------------------------
   0.337E+01 -.299E+01 0.165E+02   -.328E+01 0.718E+00 -.157E+02   -.982E-01 0.227E+01 -.784E+00   0.205E-03 0.378E-04 -.166E-03
   0.337E+01 0.299E+01 -.165E+02   -.328E+01 -.718E+00 0.157E+02   -.982E-01 -.227E+01 0.784E+00   0.205E-03 -.378E-04 0.166E-03
   -.337E+01 -.299E+01 -.165E+02   0.328E+01 0.718E+00 0.157E+02   0.982E-01 0.227E+01 0.784E+00   -.205E-03 0.378E-04 0.166E-03
   -.337E+01 0.299E+01 0.165E+02   0.328E+01 -.718E+00 -.157E+02   0.982E-01 -.227E+01 -.784E+00   -.205E-03 -.378E-04 -.166E-03
   -.337E+01 0.299E+01 -.165E+02   0.328E+01 -.718E+00 0.157E+02   0.982E-01 -.227E+01 0.784E+00   -.205E-03 -.378E-04 0.166E-03
   -.337E+01 -.299E+01 0.165E+02   0.328E+01 0.718E+00 -.157E+02   0.982E-01 0.227E+01 -.784E+00   -.205E-03 0.378E-04 -.166E-03
   0.337E+01 0.299E+01 0.165E+02   -.328E+01 -.718E+00 -.157E+02   -.982E-01 -.227E+01 -.784E+00   0.205E-03 -.378E-04 -.166E-03
   0.337E+01 -.299E+01 -.165E+02   -.328E+01 0.718E+00 0.157E+02   -.982E-01 0.227E+01 0.784E+00   0.205E-03 0.378E-04 0.166E-03
   0.670E+01 0.327E+01 -.185E+02   -.540E+01 -.256E+01 0.195E+02   -.130E+01 -.708E+00 -.983E+00   0.973E-03 -.488E-03 0.216E-02
   0.670E+01 -.327E+01 0.185E+02   -.540E+01 0.256E+01 -.195E+02   -.130E+01 0.708E+00 0.983E+00   0.973E-03 0.488E-03 -.216E-02
   -.670E+01 0.327E+01 0.185E+02   0.540E+01 -.256E+01 -.195E+02   0.130E+01 -.708E+00 0.983E+00   -.973E-03 -.488E-03 -.216E-02
   -.670E+01 -.327E+01 -.185E+02   0.540E+01 0.256E+01 0.195E+02   0.130E+01 0.708E+00 -.983E+00   -.973E-03 0.488E-03 0.216E-02
   -.670E+01 -.327E+01 0.185E+02   0.540E+01 0.256E+01 -.195E+02   0.130E+01 0.708E+00 0.983E+00   -.973E-03 0.488E-03 -.216E-02
   -.670E+01 0.327E+01 -.185E+02   0.540E+01 -.256E+01 0.195E+02   0.130E+01 -.708E+00 -.983E+00   -.973E-03 -.488E-03 0.216E-02
   0.670E+01 -.327E+01 -.185E+02   -.540E+01 0.256E+01 0.195E+02   -.130E+01 0.708E+00 -.983E+00   0.973E-03 0.488E-03 0.216E-02
   0.670E+01 0.327E+01 0.185E+02   -.540E+01 -.256E+01 -.195E+02   -.130E+01 -.708E+00 0.983E+00   0.973E-03 -.488E-03 -.216E-02
   -.200E+02 -.852E-05 -.606E-04   0.209E+02 -.944E-07 0.693E-05   -.900E+00 -.190E-18 0.321E-17   -.141E-02 0.205E-09 0.710E-10
   0.200E+02 -.104E-04 -.930E-04   -.209E+02 -.129E-05 -.156E-04   0.900E+00 -.714E-19 -.181E-17   0.141E-02 0.166E-09 0.852E-10
   0.200E+02 -.131E-04 -.957E-04   -.209E+02 -.307E-05 0.881E-05   0.900E+00 0.112E-18 -.345E-17   0.141E-02 0.279E-09 0.168E-09
   -.200E+02 -.163E-04 -.585E-04   0.209E+02 0.168E-05 -.138E-04   -.900E+00 0.509E-19 0.124E-17   -.141E-02 0.932E-10 0.177E-09
 -----------------------------------------------------------------------------------------------
   0.102E-02 -.757E-04 -.634E-03   0.320E-13 0.665E-14 -.320E-13   0.000E+00 0.222E-15 -.112E-15   0.626E-09 -.811E-09 0.550E-09


 POSITION                                       TOTAL-FORCE (eV/Angst)
 -----------------------------------------------------------------------------------
      1.21382      0.15491      2.74319         0.000006     -0.000047      0.000087
      1.21382      2.31885      4.29010         0.000006      0.000047     -0.000087
      1.19145      2.62866      0.77345        -0.000006     -0.000047     -0.000087
      1.19145      4.79261      6.25984        -0.000006      0.000047      0.000087
      3.59672      4.79261      4.29010        -0.000006      0.000047     -0.000087
      3.59672      2.62866      2.74319        -0.000006     -0.000047      0.000087
      3.61908      2.31885      6.25984         0.000006      0.000047      0.000087
      3.61908      0.15491      0.77345         0.000006     -0.000047     -0.000087
      0.51486      0.50637      4.60067        -0.000026      0.000446     -0.000047
      0.51486      1.96738      2.43262        -0.000026     -0.000446      0.000047
      1.89041      2.98013      5.94927         0.000026      0.000446      0.000047
      1.89041      4.44114      1.08402         0.000026     -0.000446     -0.000047
      4.29568      4.44114      2.43262         0.000026     -0.000446      0.000047
      4.29568      2.98013      4.60067         0.000026      0.000446     -0.000047
      2.92013      1.96738      1.08402        -0.000026     -0.000446     -0.000047
      2.92013      0.50637      5.94927        -0.000026      0.000446      0.000047
      0.24097      1.23688      0.00000        -0.000615     -0.000000      0.000000
      2.16430      3.71063      3.51665         0.000615     -0.000000      0.000000
      4.56957      3.71063      0.00000         0.000615     -0.000000      0.000000
      2.64624      1.23688      3.51665        -0.000615     -0.000000      0.000000
 -----------------------------------------------------------------------------------
    total drift:                                0.001020     -0.000076     -0.000634


--------------------------------------------------------------------------------------------------------



  FREE ENERGIE OF THE ION-ELECTRON SYSTEM (eV)
  ---------------------------------------------------
  free  energy   TOTEN  =      -148.12700938 eV

  energy  without entropy=     -148.12719814  energy(sigma->0) =     -148.12707230

 d Force = 0.2789025E-06[ 0.221E-07, 0.536E-06]  d Energy = 0.4738013E-06-0.195E-06
 d Force =-0.3738005E-02[-0.374E-02,-0.373E-02]  d Ewald  =-0.3807940E-01 0.343E-01


--------------------------------------------------------------------------------------------------------


    POTLOK:  cpu time     12.9881: real time     12.9922


--------------------------------------------------------------------------------------------------------


 Conjugate gradient step on ions:
 trial-energy change:   -0.000000  1 .order   -0.000000   -0.000001   -0.000000
  (g-gl).g =-0.281E-07      g.g   = 0.788E-06  gl.gl    = 0.388E-05
 g(Force)  = 0.560E-06   g(Stress)= 0.227E-06 ortho     = 0.151E-06
 gamma     =  -0.00725
 trial     =   0.96067
 opt step  =   1.06324  (harmonic =   1.06324) maximal distance =0.00004215
 next E    =  -148.127009   (d E  =  -0.00000)


--------------------------------------------------------------------------------------------------------


  
 reached required accuracy - stopping structural energy minimisation
 writing wavefunctions
     LOOP+:  cpu time    807.5600: real time    807.0683
    4ORBIT:  cpu time      0.0000: real time      0.0000

 total amount of memory used by VASP MPI-rank0    34554. kBytes
=======================================================================

   base      :      30000. kBytes
   nonlr-proj:       2792. kBytes
   fftplans  :        223. kBytes
   grid      :       1036. kBytes
   one-center:         61. kBytes
   wavefun   :        442. kBytes

  
  
 General timing and accounting informations for this job:
 ========================================================
  
                  Total CPU time used (sec):    24097.229
                            User time (sec):    24065.872
                          System time (sec):       31.357
                         Elapsed time (sec):    24272.757
  
                   Maximum memory used (kb):      193676.
                   Average memory used (kb):          N/A
  
                          Minor page faults:       629695
                          Major page faults:            4
                 Voluntary context switches:      4117697
