
     Program PWSCF v.7.4 starts on 29Dec2024 at 19:23:38 

     This program is part of the open-source Quantum ESPRESSO suite
     for quantum simulation of materials; please cite
         "P. Giannozzi et al., J. Phys.:Condens. Matter 21 395502 (2009);
         "P. Giannozzi et al., J. Phys.:Condens. Matter 29 465901 (2017);
         "P. Giannozzi et al., J. Chem. Phys. 152 154105 (2020);
          URL http://www.quantum-espresso.org", 
     in publications or presentations arising from this work. More details at
     http://www.quantum-espresso.org/quote

     Parallel version (MPI), running on     4 processors

     MPI processes distributed on     1 nodes
     179764 MiB available memory on the printing compute node when the environment starts

     Reading input from input.in

     Current dimensions of program PWSCF are:
     Max number of different atomic species (ntypx) = 10
     Max number of k-points (npk) =  40000
     Max angular momentum in pseudopotentials (lmaxx) =  4
     file O.pbe-n-kjpaw_psl.0.1.UPF: wavefunction(s)  2P renormalized
     Message from routine setup:
     using ibrav=0 with symmetry is DISCOURAGED, use correct ibrav instead

     R & G space division:  proc/nbgrp/npool/nimage =       4
     Subspace diagonalization in iterative solution of the eigenvalue problem:
     a serial algorithm will be used


     Parallelization info
     --------------------
     sticks:   dense  smooth     PW     G-vecs:    dense   smooth      PW
     Min         211     105     31                 4088     1441     241
     Max         212     106     32                 4091     1445     242
     Sum         847     421    127                16361     5769     965

     Using Slab Decomposition



     bravais-lattice index     =            0
     lattice parameter (alat)  =       6.1914  a.u.
     unit-cell volume          =     167.8216 (a.u.)^3
     number of atoms/cell      =            3
     number of atomic types    =            2
     number of electrons       =        15.00
     number of Kohn-Sham states=           12
     kinetic-energy cutoff     =      40.0000  Ry
     charge density cutoff     =     320.0000  Ry
     scf convergence threshold =      1.0E-08
     mixing beta               =       0.7000
     number of iterations used =            8  plain     mixing
     energy convergence thresh.=      1.0E-04
     force convergence thresh. =      1.0E-03
     press convergence thresh. =      5.0E-01
     Exchange-correlation= SLA  PW   PBX  PBC
                           (   1   4   3   4   0   0   0)
     nstep                     =           50


     celldm(1)=   6.191382  celldm(2)=   0.000000  celldm(3)=   0.000000
     celldm(4)=   0.000000  celldm(5)=   0.000000  celldm(6)=   0.000000

     crystal axes: (cart. coord. in units of alat)
               a(1) = (   0.000000   0.707107   0.707107 )  
               a(2) = (   0.707107   0.000000   0.707107 )  
               a(3) = (   0.707107   0.707107   0.000000 )  

     reciprocal axes: (cart. coord. in units 2 pi/alat)
               b(1) = ( -0.707107  0.707107  0.707107 )  
               b(2) = (  0.707107 -0.707107  0.707107 )  
               b(3) = (  0.707107  0.707107 -0.707107 )  


     PseudoPot. # 1 for Li read from file:
     ./li_pbe_v1.4.uspp.F.UPF
     MD5 check sum: e912e257baa3777c20ea3d68f190483c
     Pseudo is Ultrasoft, Zval =  3.0
     Generated by new atomic code, or converted to UPF format
     Using radial grid of  751 points,  5 beta functions with: 
                l(1) =   0
                l(2) =   0
                l(3) =   0
                l(4) =   1
                l(5) =   1
     Q(r) pseudized with 10 coefficients,  rinner =    1.150   1.150   1.150


     PseudoPot. # 2 for O  read from file:
     ./O.pbe-n-kjpaw_psl.0.1.UPF
     MD5 check sum: 0234752ac141de4415c5fc33072bef88
     Pseudo is Projector augmented-wave + core cor, Zval =  6.0
     Generated using "atomic" code by A. Dal Corso  v.5.0.99 svn rev. 10869
     Shape of augmentation charge: BESSEL
     Using radial grid of 1095 points,  4 beta functions with: 
                l(1) =   0
                l(2) =   0
                l(3) =   1
                l(4) =   1
     Q(r) pseudized with 0 coefficients 


     atomic species   valence    mass     pseudopotential
     Li                3.00     1.00000     Li( 1.00)
     O                 6.00     1.00000     O ( 1.00)

      6 Sym. Ops. (no inversion) found



   Cartesian axes

     site n.     atom                  positions (alat units)
         1        Li     tau(   1) = (   0.0000000   0.0000000   0.0000000  )
         2        O      tau(   2) = (   0.0763047   0.0763047   0.0763047  )
         3        O      tau(   3) = (   0.2289141   0.2289141   0.2289141  )

     number of k points=    13  Gaussian smearing, width (Ry)=  0.0200
                       cart. coord. in units 2pi/alat
        k(    1) = (   0.0000000   0.0000000   0.0000000), wk =   0.0312500
        k(    2) = (   0.1767767   0.1767767  -0.1767767), wk =   0.1875000
        k(    3) = (  -0.3535534  -0.3535534   0.3535534), wk =   0.0937500
        k(    4) = (   0.3535534   0.0000000   0.0000000), wk =   0.1875000
        k(    5) = (  -0.1767767  -0.5303301   0.5303301), wk =   0.3750000
        k(    6) = (   0.0000000  -0.3535534   0.3535534), wk =   0.1875000
        k(    7) = (  -0.7071068   0.0000000   0.0000000), wk =   0.0937500
        k(    8) = (  -0.7071068   0.3535534   0.0000000), wk =   0.1875000
        k(    9) = (   0.1767767   0.1767767   0.1767767), wk =   0.0625000
        k(   10) = (  -0.3535534  -0.3535534  -0.3535534), wk =   0.0312500
        k(   11) = (   0.5303301  -0.1767767   0.5303301), wk =   0.1875000
        k(   12) = (  -0.5303301  -0.5303301  -0.1767767), wk =   0.1875000
        k(   13) = (   0.3535534   0.0000000   0.3535534), wk =   0.1875000

     Dense  grid:    16361 G-vectors     FFT dimensions: (  36,  36,  36)

     Smooth grid:     5769 G-vectors     FFT dimensions: (  25,  25,  25)

     Estimated max dynamical RAM per process >       9.27 MB

     Estimated total dynamical RAM >      37.10 MB

     Check: negative core charge=   -0.000005

     Initial potential from superposition of free atoms

     starting charge      14.5493, renormalised to      15.0000
     Starting wfcs are   13 randomized atomic wfcs
     Checking if some PAW data can be deallocated... 

     total cpu time spent up to now is        0.5 secs

     Self-consistent Calculation

     iteration #  1     ecut=    40.00 Ry     beta= 0.70
     Davidson diagonalization with overlap
     ethr =  1.00E-02,  avg # of iterations =  5.4

     total cpu time spent up to now is        0.8 secs

     total energy              =     -85.56296438 Ry
     estimated scf accuracy    <       0.38010001 Ry

     iteration #  2     ecut=    40.00 Ry     beta= 0.70
     Davidson diagonalization with overlap
     ethr =  2.53E-03,  avg # of iterations =  2.1

     total cpu time spent up to now is        0.9 secs

     total energy              =     -85.62384354 Ry
     estimated scf accuracy    <       0.35430424 Ry

     iteration #  3     ecut=    40.00 Ry     beta= 0.70
     Davidson diagonalization with overlap
     ethr =  2.36E-03,  avg # of iterations =  2.2

     total cpu time spent up to now is        1.1 secs

     total energy              =     -85.70814452 Ry
     estimated scf accuracy    <       0.00690504 Ry

     iteration #  4     ecut=    40.00 Ry     beta= 0.70
     Davidson diagonalization with overlap
     ethr =  4.60E-05,  avg # of iterations =  2.8

     total cpu time spent up to now is        1.3 secs

     total energy              =     -85.70941368 Ry
     estimated scf accuracy    <       0.00038187 Ry

     iteration #  5     ecut=    40.00 Ry     beta= 0.70
     Davidson diagonalization with overlap
     c_bands:  1 eigenvalues not converged
     ethr =  2.55E-06,  avg # of iterations =  4.5

     total cpu time spent up to now is        1.5 secs

     total energy              =     -85.70951594 Ry
     estimated scf accuracy    <       0.00004722 Ry

     iteration #  6     ecut=    40.00 Ry     beta= 0.70
     Davidson diagonalization with overlap
     ethr =  3.15E-07,  avg # of iterations =  2.0

     total cpu time spent up to now is        1.7 secs

     total energy              =     -85.70952439 Ry
     estimated scf accuracy    <       0.00000153 Ry

     iteration #  7     ecut=    40.00 Ry     beta= 0.70
     Davidson diagonalization with overlap
     ethr =  1.02E-08,  avg # of iterations =  2.0

     total cpu time spent up to now is        1.9 secs

     total energy              =     -85.70952484 Ry
     estimated scf accuracy    <       0.00000003 Ry

     iteration #  8     ecut=    40.00 Ry     beta= 0.70
     Davidson diagonalization with overlap
     ethr =  1.81E-10,  avg # of iterations =  2.0

     total cpu time spent up to now is        2.0 secs

     End of self-consistent calculation

          k = 0.0000 0.0000 0.0000 (   725 PWs)   bands (ev):

   -95.3009 -35.8249 -12.7763 -12.7763  -6.4966   4.3724   4.3724   4.8535
     8.7758  20.6629  20.6629  21.6747

          k = 0.1768 0.1768-0.1768 (   715 PWs)   bands (ev):

   -95.2950 -35.8110 -13.1067 -12.7847  -6.0463   4.0672   4.2799   6.0430
     8.8661  16.2356  20.4090  21.9787

          k =-0.3536-0.3536 0.3536 (   718 PWs)   bands (ev):

   -95.2967 -35.8068 -13.4026 -12.7974  -5.6800   3.7743   4.4370   7.8421
     8.9005  12.6795  19.9248  21.0248

          k = 0.3536 0.0000 0.0000 (   713 PWs)   bands (ev):

   -95.2935 -35.8142 -13.0022 -12.9540  -5.9262   3.6239   5.1347   5.8848
     9.2270  16.5331  19.0163  19.3120

          k =-0.1768-0.5303 0.5303 (   711 PWs)   bands (ev):

   -95.2910 -35.8053 -13.2761 -12.9862  -5.5508   3.3898   5.0039   7.5133
     9.9371  13.0235  17.1355  19.9503

          k = 0.0000-0.3536 0.3536 (   716 PWs)   bands (ev):

   -95.2948 -35.8059 -13.2694 -12.9444  -5.6287   3.7678   4.1583   7.9177
     8.7136  14.8040  16.8426  21.8295

          k =-0.7071 0.0000 0.0000 (   724 PWs)   bands (ev):

   -95.2969 -35.8161 -13.1840 -13.1347  -5.4445   2.9599   6.0000   7.3192
    10.0472  14.0494  16.0393  17.9856

          k =-0.7071 0.3536 0.0000 (   724 PWs)   bands (ev):

   -95.2965 -35.8164 -13.1735 -13.1548  -5.4410   3.4152   5.2196   7.6657
    10.4618  13.5286  14.1960  20.0352

          k = 0.1768 0.1768 0.1768 (   715 PWs)   bands (ev):

   -95.2974 -35.8306 -12.8817 -12.8817  -6.1240   4.7826   5.0165   5.0165
     9.0238  16.6571  18.6577  18.6577

          k =-0.3536-0.3536-0.3536 (   718 PWs)   bands (ev):

   -95.2925 -35.8447 -12.9859 -12.9859  -5.7512   5.6871   5.6871   5.8968
     7.2918  14.8236  18.7325  18.7325

          k = 0.5303-0.1768 0.5303 (   711 PWs)   bands (ev):

   -95.2925 -35.8077 -13.2997 -12.9670  -5.5248   3.4480   4.7861   7.6251
     9.6811  13.8256  16.1362  20.6545

          k =-0.5303-0.5303-0.1768 (   711 PWs)   bands (ev):

   -95.2963 -35.8274 -13.0828 -13.0581  -5.6140   4.0114   5.8444   6.6881
     8.8577  14.8725  15.8476  18.2874

          k = 0.3536 0.0000 0.3536 (   716 PWs)   bands (ev):

   -95.2937 -35.8221 -13.1844 -12.8939  -5.7333   4.5865   4.6692   6.5572
     9.3623  13.8620  16.8077  20.6498

     the Fermi energy is     7.3017 ev

!    total energy              =     -85.70952485 Ry
     estimated scf accuracy    <          2.3E-09 Ry
     smearing contrib. (-TS)   =      -0.00231593 Ry
     internal energy E=F+TS    =     -85.70720892 Ry

     The total energy is F=E-TS. E is the sum of the following terms:
     one-electron contribution =     -77.18708114 Ry
     hartree contribution      =      40.07828229 Ry
     xc contribution           =     -19.96056082 Ry
     ewald contribution        =      -9.67434653 Ry
     one-center paw contrib.   =     -18.96350272 Ry

     convergence has been achieved in   8 iterations

     Forces acting on atoms (cartesian axes, Ry/au):

     atom    1 type  1   force =   -18.22793533  -18.22793533  -18.22793533
     atom    2 type  2   force =    15.08015438   15.08015438   15.08015438
     atom    3 type  2   force =     3.14778095    3.14778095    3.14778095

     Total force =    41.336807     Total SCF correction =     0.000066


     Computing stress (Cartesian axis) and pressure

          total   stress  (Ry/bohr**3)                   (kbar)     P=     9945.37
   0.06760728   0.06881455   0.06881455         9945.37    10122.97    10122.97
   0.06881455   0.06760728   0.06881455        10122.97     9945.37    10122.97
   0.06881455   0.06881455   0.06760728        10122.97    10122.97     9945.37


     BFGS Geometry Optimization
     Energy error            =      9.2E+03 Ry
     Gradient error          =      1.8E+01 Ry/Bohr
     Cell gradient error     =      1.0E+04 kbar

     number of scf cycles    =   1
     number of bfgs steps    =   0

     enthalpy           new  =     -85.7095248499 Ry

     new trust radius        =       0.5000000000 bohr
     new conv_thr            =       0.0000000100 Ry

     new unit-cell volume =    181.28500 a.u.^3 (    26.86367 Ang^3 )
     density =      0.18544 g/cm^3

CELL_PARAMETERS (angstrom)
   0.126239690   2.441853325   2.441853325
   2.441853325   0.126239690   2.441853325
   2.441853325   2.441853325   0.126239690

ATOMIC_POSITIONS (angstrom)
Li              -0.1651733029       -0.1651733029       -0.1651733029
O                0.4069640421        0.4069640421        0.4069640421
O                0.8394672846        0.8394672846        0.8394672846



     Writing config-only to output data dir ./tmp/pwscf.save/ :
     XML data file
     NEW-OLD atomic charge density approx. for the potential
     New effective cutoffs (rho, wfc):  318.67   39.92

     Check: negative core charge=   -0.000004

     total cpu time spent up to now is        2.3 secs

     Self-consistent Calculation

     iteration #  1     ecut=    40.00 Ry     beta= 0.70
     Davidson diagonalization with overlap
     ethr =  1.00E-06,  avg # of iterations = 13.8

     total cpu time spent up to now is        2.8 secs

     total energy              =     -94.10708090 Ry
     estimated scf accuracy    <       0.38788437 Ry

     iteration #  2     ecut=    40.00 Ry     beta= 0.70
     Davidson diagonalization with overlap
     ethr =  2.59E-03,  avg # of iterations =  2.0

     total cpu time spent up to now is        3.0 secs

     total energy              =     -94.20016347 Ry
     estimated scf accuracy    <       0.20126667 Ry

     iteration #  3     ecut=    40.00 Ry     beta= 0.70
     Davidson diagonalization with overlap
     ethr =  1.34E-03,  avg # of iterations =  2.0

     total cpu time spent up to now is        3.2 secs

     total energy              =     -94.24028552 Ry
     estimated scf accuracy    <       0.00726885 Ry

     iteration #  4     ecut=    40.00 Ry     beta= 0.70
     Davidson diagonalization with overlap
     ethr =  4.85E-05,  avg # of iterations =  3.2

     total cpu time spent up to now is        3.4 secs

     total energy              =     -94.24282087 Ry
     estimated scf accuracy    <       0.00239939 Ry

     iteration #  5     ecut=    40.00 Ry     beta= 0.70
     Davidson diagonalization with overlap
     ethr =  1.60E-05,  avg # of iterations =  2.7

     total cpu time spent up to now is        3.5 secs

     total energy              =     -94.24335664 Ry
     estimated scf accuracy    <       0.00004542 Ry

     iteration #  6     ecut=    40.00 Ry     beta= 0.70
     Davidson diagonalization with overlap
     ethr =  3.03E-07,  avg # of iterations =  4.5

     total cpu time spent up to now is        3.7 secs

     total energy              =     -94.24338020 Ry
     estimated scf accuracy    <       0.00000255 Ry

     iteration #  7     ecut=    40.00 Ry     beta= 0.70
     Davidson diagonalization with overlap
     ethr =  1.70E-08,  avg # of iterations =  2.5

     total cpu time spent up to now is        3.9 secs

     total energy              =     -94.24338130 Ry
     estimated scf accuracy    <       0.00000013 Ry

     iteration #  8     ecut=    40.00 Ry     beta= 0.70
     Davidson diagonalization with overlap
     ethr =  8.43E-10,  avg # of iterations =  2.8

     total cpu time spent up to now is        4.1 secs

     End of self-consistent calculation

          k = 0.0000 0.0000 0.0000 (   725 PWs)   bands (ev):

   -41.9640 -37.5995 -12.6419 -12.6419  -7.5185  -4.9776   7.8664   7.8664
     7.9420  19.0168  19.6150  19.6150

          k = 0.1724 0.1724-0.1813 (   715 PWs)   bands (ev):

   -41.9517 -37.6004 -12.8862 -12.6640  -7.3568  -4.7569   7.4283   7.7851
     8.3954  15.5340  19.0669  20.8761

          k =-0.3448-0.3448 0.3626 (   718 PWs)   bands (ev):

   -41.9397 -37.6026 -13.1167 -12.6887  -7.2305  -4.5277   7.0273   7.7114
     9.1311  13.0792  18.9273  21.6654

          k = 0.3448-0.0089-0.0089 (   713 PWs)   bands (ev):

   -41.9442 -37.6099 -12.8326 -12.7430  -7.3305  -4.7885   6.7386   8.5160
     9.1254  16.0485  17.6246  18.0731

          k =-0.1724-0.5261 0.5350 (   711 PWs)   bands (ev):

   -41.9321 -37.6117 -13.0096 -12.8195  -7.1955  -4.5655   6.2317   8.3125
    10.4005  13.1020  18.2552  18.9291

          k = 0.0000-0.3537 0.3537 (   716 PWs)   bands (ev):

   -41.9397 -37.6024 -13.0155 -12.7915  -7.2097  -4.5477   6.7475   7.5565
     9.3893  14.1618  18.2346  21.4103

          k =-0.6896 0.0178 0.0178 (   724 PWs)   bands (ev):

   -41.9249 -37.6221 -13.0006 -12.8491  -7.1799  -4.6040   5.6272   9.3756
    11.8708  12.5868  16.1360  18.1747

          k =-0.6985 0.3626 0.0089 (   724 PWs)   bands (ev):

   -41.9248 -37.6223 -12.9649 -12.8942  -7.1797  -4.5969   6.1961   8.4148
    11.8268  12.5674  16.3429  18.0369

          k = 0.1635 0.1635 0.1635 (   715 PWs)   bands (ev):

   -41.9412 -37.6277 -12.6883 -12.6883  -7.4394  -5.0425   8.4651   8.4651
     8.7277  15.1642  17.9316  17.9316

          k =-0.3270-0.3270-0.3270 (   718 PWs)   bands (ev):

   -41.9183 -37.6569 -12.7340 -12.7340  -7.3777  -5.0821   9.1025   9.1025
    10.3400  11.9764  17.8847  17.8847

          k = 0.5083-0.1991 0.5083 (   711 PWs)   bands (ev):

   -41.9320 -37.6117 -13.0602 -12.7679  -7.1883  -4.5789   6.4152   8.0100
    10.3492  13.6206  17.0948  18.7933

          k =-0.4994-0.4994-0.1457 (   711 PWs)   bands (ev):

   -41.9218 -37.6391 -12.8692 -12.7898  -7.2849  -4.8397   6.8849   9.2348
    11.0858  14.3746  14.7876  16.8029

          k = 0.3359-0.0178 0.3359 (   716 PWs)   bands (ev):

   -41.9290 -37.6295 -12.9221 -12.7133  -7.3021  -4.8164   7.6436   7.9587
    10.5514  13.8111  15.4533  19.6358

     the Fermi energy is     8.2363 ev

!    total energy              =     -94.24338135 Ry
     estimated scf accuracy    <          8.0E-09 Ry
     smearing contrib. (-TS)   =      -0.00523076 Ry
     internal energy E=F+TS    =     -94.23815059 Ry

     The total energy is F=E-TS. E is the sum of the following terms:
     one-electron contribution =     -67.02827572 Ry
     hartree contribution      =      38.16782400 Ry
     xc contribution           =     -19.85039797 Ry
     ewald contribution        =     -26.51932148 Ry
     one-center paw contrib.   =     -19.00797941 Ry

     convergence has been achieved in   8 iterations

     Forces acting on atoms (cartesian axes, Ry/au):

     atom    1 type  1   force =    -1.44221030   -1.44221030   -1.44221030
     atom    2 type  2   force =    -4.16348704   -4.16348704   -4.16348704
     atom    3 type  2   force =     5.60569734    5.60569734    5.60569734

     Total force =    12.349709     Total SCF correction =     0.000282


     Computing stress (Cartesian axis) and pressure

          total   stress  (Ry/bohr**3)                   (kbar)     P=     4972.80
   0.03380438   0.03407140   0.03407140         4972.80     5012.08     5012.08
   0.03407140   0.03380438   0.03407140         5012.08     4972.80     5012.08
   0.03407140   0.03407140   0.03380438         5012.08     5012.08     4972.80

     Energy error            =      8.5E+00 Ry
     Gradient error          =      5.6E+00 Ry/Bohr
     Cell gradient error     =      5.0E+03 kbar

     number of scf cycles    =   2
     number of bfgs steps    =   1

     enthalpy           old  =     -85.7095248499 Ry
     enthalpy           new  =     -94.2433813520 Ry

     CASE: enthalpy          _new < enthalpy          _old

     new trust radius        =       0.8000000000 bohr
     new conv_thr            =       0.0000000100 Ry

     new unit-cell volume =    215.56375 a.u.^3 (    31.94325 Ang^3 )
     density =      0.15595 g/cm^3

CELL_PARAMETERS (angstrom)
   0.445847123   2.759852015   2.759852015
   2.759852015   0.445847123   2.759852015
   2.759852015   2.759852015   0.445847123

ATOMIC_POSITIONS (angstrom)
Li              -0.3550368284       -0.3550368284       -0.3550368284
O                0.3519102449        0.3519102449        0.3519102449
O                1.2906254134        1.2906254134        1.2906254134



     Writing config-only to output data dir ./tmp/pwscf.save/ :
     XML data file
     NEW-OLD atomic charge density approx. for the potential
     New effective cutoffs (rho, wfc):  317.78   39.93

     Check: negative core charge=   -0.000011

     negative rho (up, down):  1.590E-03 0.000E+00

     total cpu time spent up to now is        4.4 secs

     Self-consistent Calculation

     iteration #  1     ecut=    40.00 Ry     beta= 0.70
     Davidson diagonalization with overlap
     ethr =  1.00E-06,  avg # of iterations = 13.2

     total cpu time spent up to now is        4.9 secs

     total energy              =     -96.95870574 Ry
     estimated scf accuracy    <       0.74072891 Ry

     iteration #  2     ecut=    40.00 Ry     beta= 0.70
     Davidson diagonalization with overlap
     ethr =  4.94E-03,  avg # of iterations =  2.0

     total cpu time spent up to now is        5.1 secs

     total energy              =     -96.89504072 Ry
     estimated scf accuracy    <       3.21699596 Ry

     iteration #  3     ecut=    40.00 Ry     beta= 0.70
     Davidson diagonalization with overlap
     ethr =  4.94E-03,  avg # of iterations =  1.9

     total cpu time spent up to now is        5.2 secs

     total energy              =     -97.30089911 Ry
     estimated scf accuracy    <       0.01599878 Ry

     iteration #  4     ecut=    40.00 Ry     beta= 0.70
     Davidson diagonalization with overlap
     ethr =  1.07E-04,  avg # of iterations =  2.0

     total cpu time spent up to now is        5.4 secs

     total energy              =     -97.30467811 Ry
     estimated scf accuracy    <       0.00263244 Ry

     iteration #  5     ecut=    40.00 Ry     beta= 0.70
     Davidson diagonalization with overlap
     ethr =  1.75E-05,  avg # of iterations =  2.5

     total cpu time spent up to now is        5.6 secs

     total energy              =     -97.30513176 Ry
     estimated scf accuracy    <       0.00193182 Ry

     iteration #  6     ecut=    40.00 Ry     beta= 0.70
     Davidson diagonalization with overlap
     ethr =  1.29E-05,  avg # of iterations =  1.0

     total cpu time spent up to now is        5.8 secs

     total energy              =     -97.30542571 Ry
     estimated scf accuracy    <       0.00004982 Ry

     iteration #  7     ecut=    40.00 Ry     beta= 0.70
     Davidson diagonalization with overlap
     ethr =  3.32E-07,  avg # of iterations =  2.0

     total cpu time spent up to now is        5.9 secs

     total energy              =     -97.30543511 Ry
     estimated scf accuracy    <       0.00000071 Ry

     iteration #  8     ecut=    40.00 Ry     beta= 0.70
     Davidson diagonalization with overlap
     ethr =  4.71E-09,  avg # of iterations =  3.6

     total cpu time spent up to now is        6.1 secs

     total energy              =     -97.30543551 Ry
     estimated scf accuracy    <       0.00000044 Ry

     iteration #  9     ecut=    40.00 Ry     beta= 0.70
     Davidson diagonalization with overlap
     ethr =  2.92E-09,  avg # of iterations =  1.0

     total cpu time spent up to now is        6.3 secs

     total energy              =     -97.30543560 Ry
     estimated scf accuracy    <       0.00000007 Ry

     iteration # 10     ecut=    40.00 Ry     beta= 0.70
     Davidson diagonalization with overlap
     ethr =  4.50E-10,  avg # of iterations =  1.0

     total cpu time spent up to now is        6.5 secs

     End of self-consistent calculation

          k = 0.0000 0.0000 0.0000 (   725 PWs)   bands (ev):

   -42.2835 -18.3145 -13.7883  -4.0180  -1.2355  -1.2355   0.1937   0.1937
     4.7093   8.1263  17.3020  17.3020

          k = 0.1638 0.1638-0.1902 (   715 PWs)   bands (ev):

   -42.2771 -18.1969 -13.8168  -3.8467  -2.3243  -1.2942  -0.0606   0.3448
     4.7344   9.7662  14.8042  16.8300

          k =-0.3275-0.3275 0.3804 (   718 PWs)   bands (ev):

   -42.2721 -18.0732 -13.8526  -3.9259  -2.9279  -1.3237  -0.3408   0.3873
     4.5972  12.2002  12.9483  15.2230

          k = 0.3275-0.0265-0.0265 (   713 PWs)   bands (ev):

   -42.2767 -18.1736 -13.9068  -3.6531  -1.9403  -1.9264  -0.2224   0.7973
     4.5984   9.8047  14.6763  16.6729

          k =-0.1638-0.5177 0.5442 (   711 PWs)   bands (ev):

   -42.2710 -18.0501 -13.9362  -3.5773  -2.7911  -1.9252  -0.3863   0.7311
     4.4918  11.9156  13.6629  15.9532

          k = 0.0000-0.3540 0.3540 (   716 PWs)   bands (ev):

   -42.2721 -18.0766 -13.8444  -3.7421  -2.8521  -1.8376  -0.1207   0.2824
     4.6571  11.6760  14.3685  15.7221

          k =-0.6550 0.0529 0.0529 (   724 PWs)   bands (ev):

   -42.2718 -18.0282 -14.0222  -3.4294  -2.4501  -2.3436  -0.6792   1.1762
     4.2435  11.3163  13.9530  16.1534

          k =-0.6815 0.3804 0.0265 (   724 PWs)   bands (ev):

   -42.2717 -18.0246 -14.0316  -3.3673  -2.6458  -2.3637  -0.1688   0.7819
     4.2844  12.2917  13.1359  15.5299

          k = 0.1373 0.1373 0.1373 (   715 PWs)   bands (ev):

   -42.2816 -18.2396 -14.0699  -3.4117  -1.6205  -1.6205   0.7123   0.7123
     4.3097   8.5890  14.0370  16.8493

          k =-0.2746-0.2746-0.2746 (   718 PWs)   bands (ev):

   -42.2799 -18.1570 -14.3439  -2.6869  -1.8942  -1.8942   1.1041   1.1041
     3.6758   9.7883  11.7181  16.6253

          k = 0.4648-0.2431 0.4648 (   711 PWs)   bands (ev):

   -42.2715 -18.0507 -13.9394  -3.6431  -2.7091  -2.0396  -0.1311   0.5895
     4.5040  11.5376  13.7331  15.3900

          k =-0.4384-0.4384-0.0844 (   711 PWs)   bands (ev):

   -42.2762 -18.0927 -14.1898  -3.0771  -2.1830  -2.1458   0.1670   1.1475
     3.9975  10.7004  12.7869  15.4976

          k = 0.3011-0.0529 0.3011 (   716 PWs)   bands (ev):

   -42.2759 -18.1181 -14.1013  -3.3017  -2.4524  -1.7240   0.4940   0.6467
     4.2309  10.5186  12.8403  15.8208

     the Fermi energy is     0.7139 ev

!    total energy              =     -97.30543560 Ry
     estimated scf accuracy    <          8.5E-10 Ry
     smearing contrib. (-TS)   =      -0.00773877 Ry
     internal energy E=F+TS    =     -97.29769684 Ry

     The total energy is F=E-TS. E is the sum of the following terms:
     one-electron contribution =     -37.08158802 Ry
     hartree contribution      =      23.99811166 Ry
     xc contribution           =     -18.03544902 Ry
     ewald contribution        =     -47.07583418 Ry
     one-center paw contrib.   =     -19.10293728 Ry

     convergence has been achieved in  10 iterations

     Forces acting on atoms (cartesian axes, Ry/au):

     atom    1 type  1   force =    -0.38138575   -0.38138575   -0.38138575
     atom    2 type  2   force =     0.53010425    0.53010425    0.53010425
     atom    3 type  2   force =    -0.14871850   -0.14871850   -0.14871850

     Total force =     1.160064     Total SCF correction =     0.000037


     Computing stress (Cartesian axis) and pressure

          total   stress  (Ry/bohr**3)                   (kbar)     P=      -71.69
  -0.00048735   0.00028137   0.00028137          -71.69       41.39       41.39
   0.00028137  -0.00048735   0.00028137           41.39      -71.69       41.39
   0.00028137   0.00028137  -0.00048735           41.39       41.39      -71.69

     Energy error            =      3.1E+00 Ry
     Gradient error          =      5.3E-01 Ry/Bohr
     Cell gradient error     =      7.2E+01 kbar

     number of scf cycles    =   3
     number of bfgs steps    =   2

     enthalpy           old  =     -94.2433813520 Ry
     enthalpy           new  =     -97.3054356016 Ry

     CASE: enthalpy          _new < enthalpy          _old

     new trust radius        =       0.0667836197 bohr
     new conv_thr            =       0.0000000100 Ry

     new unit-cell volume =    201.21552 a.u.^3 (    29.81706 Ang^3 )
     density =      0.16707 g/cm^3

CELL_PARAMETERS (angstrom)
   0.441359980   2.700481721   2.700481721
   2.700481721   0.441359980   2.700481721
   2.700481721   2.700481721   0.441359980

ATOMIC_POSITIONS (angstrom)
Li              -0.3607207728       -0.3607207728       -0.3607207728
O                0.3498443615        0.3498443615        0.3498443615
O                1.2717799514        1.2717799514        1.2717799514



     Writing config-only to output data dir ./tmp/pwscf.save/ :
     XML data file
     NEW-OLD atomic charge density approx. for the potential
     New effective cutoffs (rho, wfc):  333.39   41.90

     Check: negative core charge=   -0.000010

     total cpu time spent up to now is        6.7 secs

     Self-consistent Calculation

     iteration #  1     ecut=    40.00 Ry     beta= 0.70
     Davidson diagonalization with overlap
     ethr =  1.00E-06,  avg # of iterations =  8.3

     total cpu time spent up to now is        7.1 secs

     total energy              =     -97.34369789 Ry
     estimated scf accuracy    <       0.00246260 Ry

     iteration #  2     ecut=    40.00 Ry     beta= 0.70
     Davidson diagonalization with overlap
     ethr =  1.64E-05,  avg # of iterations =  2.0

     total cpu time spent up to now is        7.2 secs

     total energy              =     -97.34198164 Ry
     estimated scf accuracy    <       0.02898502 Ry

     iteration #  3     ecut=    40.00 Ry     beta= 0.70
     Davidson diagonalization with overlap
     ethr =  1.64E-05,  avg # of iterations =  2.0

     total cpu time spent up to now is        7.4 secs

     total energy              =     -97.34540684 Ry
     estimated scf accuracy    <       0.00017466 Ry

     iteration #  4     ecut=    40.00 Ry     beta= 0.70
     Davidson diagonalization with overlap
     ethr =  1.16E-06,  avg # of iterations =  2.0

     total cpu time spent up to now is        7.6 secs

     total energy              =     -97.34539018 Ry
     estimated scf accuracy    <       0.00001392 Ry

     iteration #  5     ecut=    40.00 Ry     beta= 0.70
     Davidson diagonalization with overlap
     ethr =  9.28E-08,  avg # of iterations =  2.1

     total cpu time spent up to now is        7.8 secs

     total energy              =     -97.34539606 Ry
     estimated scf accuracy    <       0.00000021 Ry

     iteration #  6     ecut=    40.00 Ry     beta= 0.70
     Davidson diagonalization with overlap
     ethr =  1.42E-09,  avg # of iterations =  3.9

     total cpu time spent up to now is        8.0 secs

     total energy              =     -97.34539636 Ry
     estimated scf accuracy    <       0.00000003 Ry

     iteration #  7     ecut=    40.00 Ry     beta= 0.70
     Davidson diagonalization with overlap
     ethr =  2.25E-10,  avg # of iterations =  2.0

     total cpu time spent up to now is        8.2 secs

     End of self-consistent calculation

          k = 0.0000 0.0000 0.0000 (   725 PWs)   bands (ev):

   -41.5805 -18.0586 -13.0993  -3.7872  -0.7195  -0.7195   0.8012   0.8012
     5.5956   8.9945  18.2616  18.2616

          k = 0.1676 0.1676-0.1950 (   715 PWs)   bands (ev):

   -41.5722 -17.9233 -13.1416  -3.5933  -1.9228  -0.7957   0.5185   0.9664
     5.6062  10.7038  15.6892  17.8500

          k =-0.3352-0.3352 0.3900 (   718 PWs)   bands (ev):

   -41.5648 -17.7791 -13.1929  -3.6643  -2.5819  -0.8385   0.2110   1.0220
     5.4444  13.1150  13.9384  16.1008

          k = 0.3352-0.0274-0.0274 (   713 PWs)   bands (ev):

   -41.5716 -17.8968 -13.2544  -3.3622  -1.5001  -1.4896   0.3448   1.4584
     5.4502  10.7190  15.5432  17.8155

          k =-0.1676-0.5302 0.5575 (   711 PWs)   bands (ev):

   -41.5637 -17.7529 -13.2972  -3.2712  -2.4403  -1.4992   0.1696   1.3862
     5.3154  12.8561  14.5821  16.9924

          k =-0.0000-0.3626 0.3626 (   716 PWs)   bands (ev):

   -41.5648 -17.7834 -13.1816  -3.4676  -2.5045  -1.3929   0.4516   0.8929
     5.5133  12.6463  15.3212  16.6983

          k =-0.6704 0.0548 0.0548 (   724 PWs)   bands (ev):

   -41.5639 -17.7276 -13.4030  -3.0862  -2.0520  -1.9620  -0.1421   1.8736
     5.0474  12.1047  14.9656  17.3056

          k =-0.6977 0.3900 0.0274 (   724 PWs)   bands (ev):

   -41.5638 -17.7228 -13.4156  -3.0226  -2.2845  -1.9535   0.4044   1.4414
     5.1016  13.1687  14.0576  16.7199

          k = 0.1402 0.1402 0.1402 (   715 PWs)   bands (ev):

   -41.5781 -17.9737 -13.4522  -3.0689  -1.1409  -1.1409   1.3669   1.3669
     5.1464   9.4414  15.1151  17.7691

          k =-0.2804-0.2804-0.2804 (   718 PWs)   bands (ev):

   -41.5758 -17.8790 -13.7905  -2.2260  -1.4332  -1.4332   1.7944   1.7944
     4.4256  10.6026  12.8257  17.5309

          k = 0.4754-0.2498 0.4754 (   711 PWs)   bands (ev):

   -41.5640 -17.7533 -13.3008  -3.3512  -2.3301  -1.6165   0.4367   1.2248
     5.3385  12.3565  14.7474  16.4917

          k =-0.4480-0.4480-0.0854 (   711 PWs)   bands (ev):

   -41.5700 -17.8032 -13.6064  -2.6794  -1.7572  -1.7174   0.7700   1.8421
     4.7855  11.5640  13.7404  16.6401

          k = 0.3078-0.0548 0.3078 (   716 PWs)   bands (ev):

   -41.5702 -17.8325 -13.4975  -2.9446  -2.0496  -1.2621   1.1237   1.2989
     5.0413  11.4279  13.7120  16.9964

     the Fermi energy is     1.3651 ev

!    total energy              =     -97.34539636 Ry
     estimated scf accuracy    <          1.7E-09 Ry
     smearing contrib. (-TS)   =      -0.00740777 Ry
     internal energy E=F+TS    =     -97.33798859 Ry

     The total energy is F=E-TS. E is the sum of the following terms:
     one-electron contribution =     -34.80930260 Ry
     hartree contribution      =      23.15906643 Ry
     xc contribution           =     -18.08480705 Ry
     ewald contribution        =     -48.50323412 Ry
     one-center paw contrib.   =     -19.09971126 Ry

     convergence has been achieved in   7 iterations

     Forces acting on atoms (cartesian axes, Ry/au):

     atom    1 type  1   force =    -0.36731833   -0.36731833   -0.36731833
     atom    2 type  2   force =     0.51229059    0.51229059    0.51229059
     atom    3 type  2   force =    -0.14497226   -0.14497226   -0.14497226

     Total force =     1.120332     Total SCF correction =     0.000042


     Computing stress (Cartesian axis) and pressure

          total   stress  (Ry/bohr**3)                   (kbar)     P=       20.34
   0.00013825   0.00043962   0.00043962           20.34       64.67       64.67
   0.00043962   0.00013825   0.00043962           64.67       20.34       64.67
   0.00043962   0.00043962   0.00013825           64.67       64.67       20.34

     Energy error            =      4.0E-02 Ry
     Gradient error          =      5.1E-01 Ry/Bohr
     Cell gradient error     =      6.5E+01 kbar

     number of scf cycles    =   4
     number of bfgs steps    =   3

     enthalpy           old  =     -97.3054356016 Ry
     enthalpy           new  =     -97.3453963639 Ry

     CASE: enthalpy          _new < enthalpy          _old

     new trust radius        =       0.0990502788 bohr
     new conv_thr            =       0.0000000100 Ry

     new unit-cell volume =    180.95477 a.u.^3 (    26.81473 Ang^3 )
     density =      0.18578 g/cm^3

CELL_PARAMETERS (angstrom)
   0.438827669   2.614083404   2.614083404
   2.614083404   0.438827669   2.614083404
   2.614083404   2.614083404   0.438827669

ATOMIC_POSITIONS (angstrom)
Li              -0.3721688575       -0.3721688575       -0.3721688575
O                0.3561818971        0.3561818971        0.3561818971
O                1.2390506087        1.2390506087        1.2390506087



     Writing config-only to output data dir ./tmp/pwscf.save/ :
     XML data file
     NEW-OLD atomic charge density approx. for the potential
     New effective cutoffs (rho, wfc):  359.55   45.19

     Check: negative core charge=   -0.000009

     total cpu time spent up to now is        8.4 secs

     Self-consistent Calculation

     iteration #  1     ecut=    40.00 Ry     beta= 0.70
     Davidson diagonalization with overlap
     ethr =  1.00E-06,  avg # of iterations =  9.0

     total cpu time spent up to now is        8.8 secs

     total energy              =     -97.41732883 Ry
     estimated scf accuracy    <       0.00530045 Ry

     iteration #  2     ecut=    40.00 Ry     beta= 0.70
     Davidson diagonalization with overlap
     ethr =  3.53E-05,  avg # of iterations =  2.0

     total cpu time spent up to now is        9.0 secs

     total energy              =     -97.41491797 Ry
     estimated scf accuracy    <       0.04446258 Ry

     iteration #  3     ecut=    40.00 Ry     beta= 0.70
     Davidson diagonalization with overlap
     ethr =  3.53E-05,  avg # of iterations =  2.0

     total cpu time spent up to now is        9.2 secs

     total energy              =     -97.42065906 Ry
     estimated scf accuracy    <       0.00029825 Ry

     iteration #  4     ecut=    40.00 Ry     beta= 0.70
     Davidson diagonalization with overlap
     ethr =  1.99E-06,  avg # of iterations =  2.0

     total cpu time spent up to now is        9.3 secs

     total energy              =     -97.42063806 Ry
     estimated scf accuracy    <       0.00001231 Ry

     iteration #  5     ecut=    40.00 Ry     beta= 0.70
     Davidson diagonalization with overlap
     ethr =  8.21E-08,  avg # of iterations =  2.9

     total cpu time spent up to now is        9.5 secs

     total energy              =     -97.42064651 Ry
     estimated scf accuracy    <       0.00000021 Ry

     iteration #  6     ecut=    40.00 Ry     beta= 0.70
     Davidson diagonalization with overlap
     ethr =  1.37E-09,  avg # of iterations =  3.5

     total cpu time spent up to now is        9.7 secs

     total energy              =     -97.42064691 Ry
     estimated scf accuracy    <       0.00000001 Ry

     iteration #  7     ecut=    40.00 Ry     beta= 0.70
     Davidson diagonalization with overlap
     ethr =  8.49E-11,  avg # of iterations =  3.1

     total cpu time spent up to now is        9.9 secs

     End of self-consistent calculation

          k = 0.0000 0.0000 0.0000 (   725 PWs)   bands (ev):

   -40.3170 -17.8328 -11.8404  -3.4733   0.0611   0.0611   1.9815   1.9815
     7.4358  10.4795  19.8177  19.8177

          k = 0.1737 0.1737-0.2029 (   715 PWs)   bands (ev):

   -40.3034 -17.6725 -11.9098  -3.2318  -1.2933  -0.0522   1.6499   2.1218
     7.4393  12.2703  17.1011  19.5004

          k =-0.3474-0.3474 0.4057 (   718 PWs)   bands (ev):

   -40.2903 -17.4989 -11.9911  -3.2525  -2.0627  -0.1336   1.3037   2.1789
     7.2261  14.5525  15.5597  17.6502

          k = 0.3474-0.0292-0.0292 (   713 PWs)   bands (ev):

   -40.3022 -17.6442 -12.0668  -2.9310  -0.8381  -0.7866   1.4380   2.6683
     7.2468  12.2352  16.9836  19.6522

          k =-0.1737-0.5502 0.5794 (   711 PWs)   bands (ev):

   -40.2890 -17.4710 -12.1337  -2.7896  -1.8904  -0.8655   1.2260   2.5744
     7.0621  14.3907  16.1303  18.6849

          k =-0.0000-0.3765 0.3765 (   716 PWs)   bands (ev):

   -40.2904 -17.5045 -11.9727  -3.0583  -1.9516  -0.7233   1.5270   2.0128
     7.3197  14.2288  16.8967  18.2868

          k =-0.6948 0.0583 0.0583 (   724 PWs)   bands (ev):

   -40.2883 -17.4438 -12.2755  -2.5414  -1.4231  -1.3966   0.8815   3.1258
     6.7508  13.3993  16.7233  19.1195

          k =-0.7239 0.4057 0.0292 (   724 PWs)   bands (ev):

   -40.2882 -17.4373 -12.2949  -2.4725  -1.6920  -1.3404   1.4559   2.6355
     6.8259  14.5999  15.6461  18.6376

          k = 0.1445 0.1445 0.1445 (   715 PWs)   bands (ev):

   -40.3131 -17.7420 -12.3320  -2.5398  -0.3727  -0.3727   2.5820   2.5820
     6.8994  10.8666  16.8771  19.2670

          k =-0.2891-0.2891-0.2891 (   718 PWs)   bands (ev):

   -40.3093 -17.6406 -12.7827  -1.4973  -0.6811  -0.6811   3.0558   3.0558
     6.0255  11.9302  14.7138  19.0061

          k = 0.4919-0.2612 0.4919 (   711 PWs)   bands (ev):

   -40.2892 -17.4711 -12.1386  -2.8966  -1.7524  -0.9316   1.4807   2.3822
     7.1031  13.6739  16.4841  18.2831

          k =-0.4628-0.4628-0.0862 (   711 PWs)   bands (ev):

   -40.2988 -17.5418 -12.5459  -2.0361  -1.0650  -1.0575   1.8880   3.0991
     6.4535  12.9950  15.2938  18.5903

          k = 0.3182-0.0583 0.3182 (   716 PWs)   bands (ev):

   -40.2998 -17.5733 -12.4017  -2.3693  -1.4237  -0.5245   2.2862   2.4914
     6.7526  12.9391  15.1271  18.9510

     the Fermi energy is     2.5546 ev

!    total energy              =     -97.42064692 Ry
     estimated scf accuracy    <          6.0E-10 Ry
     smearing contrib. (-TS)   =      -0.00699695 Ry
     internal energy E=F+TS    =     -97.41364997 Ry

     The total energy is F=E-TS. E is the sum of the following terms:
     one-electron contribution =     -31.28526675 Ry
     hartree contribution      =      21.89707420 Ry
     xc contribution           =     -18.17229617 Ry
     ewald contribution        =     -50.76095819 Ry
     one-center paw contrib.   =     -19.09220305 Ry

     convergence has been achieved in   7 iterations

     Forces acting on atoms (cartesian axes, Ry/au):

     atom    1 type  1   force =    -0.30601933   -0.30601933   -0.30601933
     atom    2 type  2   force =     0.44946302    0.44946302    0.44946302
     atom    3 type  2   force =    -0.14344369   -0.14344369   -0.14344369

     Total force =     0.974024     Total SCF correction =     0.000009


     Computing stress (Cartesian axis) and pressure

          total   stress  (Ry/bohr**3)                   (kbar)     P=      150.89
   0.00102570   0.00052670   0.00052670          150.89       77.48       77.48
   0.00052670   0.00102570   0.00052670           77.48      150.89       77.48
   0.00052670   0.00052670   0.00102570           77.48       77.48      150.89

     Energy error            =      7.5E-02 Ry
     Gradient error          =      4.5E-01 Ry/Bohr
     Cell gradient error     =      1.5E+02 kbar

     number of scf cycles    =   5
     number of bfgs steps    =   4

     enthalpy           old  =     -97.3453963639 Ry
     enthalpy           new  =     -97.4206469150 Ry

     CASE: enthalpy          _new < enthalpy          _old

     new trust radius        =       0.1460655124 bohr
     new conv_thr            =       0.0000000100 Ry

     new unit-cell volume =    158.32160 a.u.^3 (    23.46084 Ang^3 )
     density =      0.21234 g/cm^3

CELL_PARAMETERS (angstrom)
   0.444167473   2.514542588   2.514542588
   2.514542588   0.444167473   2.514542588
   2.514542588   2.514542588   0.444167473

ATOMIC_POSITIONS (angstrom)
Li              -0.3918480376       -0.3918480376       -0.3918480376
O                0.3871051972        0.3871051972        0.3871051972
O                1.1859926862        1.1859926862        1.1859926862



     Writing config-only to output data dir ./tmp/pwscf.save/ :
     XML data file
     NEW-OLD atomic charge density approx. for the potential
     New effective cutoffs (rho, wfc):  396.81   49.88

     Check: negative core charge=   -0.000008

     total cpu time spent up to now is       10.2 secs

     Self-consistent Calculation

     iteration #  1     ecut=    40.00 Ry     beta= 0.70
     Davidson diagonalization with overlap
     ethr =  1.00E-06,  avg # of iterations =  9.0

     total cpu time spent up to now is       10.6 secs

     total energy              =     -97.52704887 Ry
     estimated scf accuracy    <       0.00661686 Ry

     iteration #  2     ecut=    40.00 Ry     beta= 0.70
     Davidson diagonalization with overlap
     ethr =  4.41E-05,  avg # of iterations =  2.0

     total cpu time spent up to now is       10.7 secs

     total energy              =     -97.52567239 Ry
     estimated scf accuracy    <       0.01419884 Ry

     iteration #  3     ecut=    40.00 Ry     beta= 0.70
     Davidson diagonalization with overlap
     ethr =  4.41E-05,  avg # of iterations =  1.9

     total cpu time spent up to now is       10.9 secs

     total energy              =     -97.52851946 Ry
     estimated scf accuracy    <       0.00117855 Ry

     iteration #  4     ecut=    40.00 Ry     beta= 0.70
     Davidson diagonalization with overlap
     ethr =  7.86E-06,  avg # of iterations =  1.0

     total cpu time spent up to now is       11.1 secs

     total energy              =     -97.52870296 Ry
     estimated scf accuracy    <       0.00000733 Ry

     iteration #  5     ecut=    40.00 Ry     beta= 0.70
     Davidson diagonalization with overlap
     ethr =  4.89E-08,  avg # of iterations =  3.5

     total cpu time spent up to now is       11.3 secs

     total energy              =     -97.52871081 Ry
     estimated scf accuracy    <       0.00000043 Ry

     iteration #  6     ecut=    40.00 Ry     beta= 0.70
     Davidson diagonalization with overlap
     ethr =  2.90E-09,  avg # of iterations =  2.0

     total cpu time spent up to now is       11.5 secs

     total energy              =     -97.52871098 Ry
     estimated scf accuracy    <       0.00000006 Ry

     iteration #  7     ecut=    40.00 Ry     beta= 0.70
     Davidson diagonalization with overlap
     ethr =  3.95E-10,  avg # of iterations =  2.1

     total cpu time spent up to now is       11.6 secs

     End of self-consistent calculation

          k = 0.0000 0.0000 0.0000 (   725 PWs)   bands (ev):

   -38.5082 -18.3168  -9.6961  -3.1676   0.7623   0.7623   4.1120   4.1120
    11.2001  12.8574  21.9103  21.9103

          k = 0.1818 0.1818-0.2139 (   715 PWs)   bands (ev):

   -38.4821 -18.1451  -9.8048  -2.8500  -0.6704   0.5808   3.7069   4.0936
    11.4394  14.4549  18.8823  21.6907

          k =-0.3635-0.3635 0.4277 (   718 PWs)   bands (ev):

   -38.4564 -17.9577  -9.9283  -2.7758  -1.5460   0.4219   3.3106   4.0665
    11.1382  16.3342  17.6497  20.1673

          k = 0.3635-0.0321-0.0321 (   713 PWs)   bands (ev):

   -38.4799 -18.1265 -10.0344  -2.4407  -0.2853  -0.0344   3.3939   4.6959
    11.1978  14.3033  19.0015  21.9191

          k =-0.1818-0.5774 0.6095 (   711 PWs)   bands (ev):

   -38.4541 -17.9400 -10.1246  -2.2108  -1.3222  -0.3426   3.0624   4.5316
    10.9399  16.4007  18.3606  21.0035

          k =-0.0000-0.3956 0.3956 (   716 PWs)   bands (ev):

   -38.4566 -17.9632  -9.8927  -2.6086  -1.3703  -0.1587   3.3744   3.9199
    11.3074  16.2769  19.0652  20.5130

          k =-0.7270 0.0642 0.0642 (   724 PWs)   bands (ev):

   -38.4523 -17.9232 -10.3143  -1.8743  -1.0358  -0.6701   2.6606   5.1513
    10.5370  15.1865  19.4039  21.3415

          k =-0.7591 0.4277 0.0321 (   724 PWs)   bands (ev):

   -38.4521 -17.9165 -10.3475  -1.7910  -1.0501  -0.8200   3.2132   4.6066
    10.6534  16.5034  18.0137  21.1398

          k = 0.1497 0.1497 0.1497 (   715 PWs)   bands (ev):

   -38.5011 -18.2562 -10.4163  -1.9046   0.4169   0.4169   4.6647   4.6647
    10.7181  12.8479  19.1612  21.2986

          k =-0.2993-0.2993-0.2993 (   718 PWs)   bands (ev):

   -38.4939 -18.1913 -11.0066  -0.6345   0.1401   0.1401   5.1544   5.1544
     9.5523  13.7462  17.4146  21.0065

          k = 0.5132-0.2781 0.5132 (   711 PWs)   bands (ev):

   -38.4543 -17.9398 -10.1324  -2.3774  -1.2024  -0.2224   3.2482   4.3183
    11.0201  15.4000  18.9659  20.7260

          k =-0.4811-0.4811-0.0854 (   711 PWs)   bands (ev):

   -38.4731 -18.0570 -10.6939  -1.2087  -0.5036  -0.2854   3.7957   5.1584
    10.1450  14.9868  17.4218  21.2944

          k = 0.3314-0.0642 0.3314 (   716 PWs)   bands (ev):

   -38.4752 -18.0769 -10.5073  -1.6417  -0.8102   0.2170   4.2740   4.4647
    10.5293  15.0255  17.0137  21.6023

     the Fermi energy is     4.5368 ev

!    total energy              =     -97.52871099 Ry
     estimated scf accuracy    <          4.9E-09 Ry
     smearing contrib. (-TS)   =      -0.00652976 Ry
     internal energy E=F+TS    =     -97.52218123 Ry

     The total energy is F=E-TS. E is the sum of the following terms:
     one-electron contribution =     -27.48892509 Ry
     hartree contribution      =      20.67963821 Ry
     xc contribution           =     -18.34017459 Ry
     ewald contribution        =     -53.29955111 Ry
     one-center paw contrib.   =     -19.07316865 Ry

     convergence has been achieved in   7 iterations

     Forces acting on atoms (cartesian axes, Ry/au):

     atom    1 type  1   force =    -0.17163985   -0.17163985   -0.17163985
     atom    2 type  2   force =     0.26891251    0.26891251    0.26891251
     atom    3 type  2   force =    -0.09727266   -0.09727266   -0.09727266

     Total force =     0.577675     Total SCF correction =     0.000293


     Computing stress (Cartesian axis) and pressure

          total   stress  (Ry/bohr**3)                   (kbar)     P=      357.67
   0.00243138   0.00070709   0.00070709          357.67      104.02      104.02
   0.00070709   0.00243138   0.00070709          104.02      357.67      104.02
   0.00070709   0.00070709   0.00243138          104.02      104.02      357.67

     Energy error            =      1.1E-01 Ry
     Gradient error          =      2.7E-01 Ry/Bohr
     Cell gradient error     =      3.6E+02 kbar

     number of scf cycles    =   6
     number of bfgs steps    =   5

     enthalpy           old  =     -97.4206469150 Ry
     enthalpy           new  =     -97.5287109886 Ry

     CASE: enthalpy          _new < enthalpy          _old

     new trust radius        =       0.1200702003 bohr
     new conv_thr            =       0.0000000100 Ry

     new unit-cell volume =    160.50311 a.u.^3 (    23.78411 Ang^3 )
     density =      0.20945 g/cm^3

CELL_PARAMETERS (angstrom)
   0.454523916   2.530943532   2.530943532
   2.530943532   0.454523916   2.530943532
   2.530943532   2.530943532   0.454523916

ATOMIC_POSITIONS (angstrom)
Li              -0.4052277760       -0.4052277760       -0.4052277760
O                0.4271308289        0.4271308289        0.4271308289
O                1.1686613222        1.1686613222        1.1686613222



     Writing config-only to output data dir ./tmp/pwscf.save/ :
     XML data file
     NEW-OLD atomic charge density approx. for the potential
     New effective cutoffs (rho, wfc):  394.48   49.59

     Check: negative core charge=   -0.000007

     total cpu time spent up to now is       11.9 secs

     Self-consistent Calculation

     iteration #  1     ecut=    40.00 Ry     beta= 0.70
     Davidson diagonalization with overlap
     ethr =  1.00E-06,  avg # of iterations =  8.3

     total cpu time spent up to now is       12.2 secs

     total energy              =     -97.58399864 Ry
     estimated scf accuracy    <       0.00661690 Ry

     iteration #  2     ecut=    40.00 Ry     beta= 0.70
     Davidson diagonalization with overlap
     ethr =  4.41E-05,  avg # of iterations =  2.0

     total cpu time spent up to now is       12.4 secs

     total energy              =     -97.58607399 Ry
     estimated scf accuracy    <       0.00163471 Ry

     iteration #  3     ecut=    40.00 Ry     beta= 0.70
     Davidson diagonalization with overlap
     ethr =  1.09E-05,  avg # of iterations =  2.0

     total cpu time spent up to now is       12.6 secs

     total energy              =     -97.58632849 Ry
     estimated scf accuracy    <       0.00003769 Ry

     iteration #  4     ecut=    40.00 Ry     beta= 0.70
     Davidson diagonalization with overlap
     ethr =  2.51E-07,  avg # of iterations =  2.2

     total cpu time spent up to now is       12.8 secs

     total energy              =     -97.58633289 Ry
     estimated scf accuracy    <       0.00006644 Ry

     iteration #  5     ecut=    40.00 Ry     beta= 0.70
     Davidson diagonalization with overlap
     ethr =  2.51E-07,  avg # of iterations =  1.5

     total cpu time spent up to now is       12.9 secs

     total energy              =     -97.58634399 Ry
     estimated scf accuracy    <       0.00000196 Ry

     iteration #  6     ecut=    40.00 Ry     beta= 0.70
     Davidson diagonalization with overlap
     ethr =  1.31E-08,  avg # of iterations =  2.0

     total cpu time spent up to now is       13.1 secs

     total energy              =     -97.58634458 Ry
     estimated scf accuracy    <       0.00000004 Ry

     iteration #  7     ecut=    40.00 Ry     beta= 0.70
     Davidson diagonalization with overlap
     ethr =  2.58E-10,  avg # of iterations =  3.2

     total cpu time spent up to now is       13.3 secs

     End of self-consistent calculation

          k = 0.0000 0.0000 0.0000 (   725 PWs)   bands (ev):

   -38.4564 -19.9207  -9.1746  -3.5812  -0.0891  -0.0891   4.7550   4.7550
    11.8783  14.5305  21.5637  21.5637

          k = 0.1810 0.1810-0.2135 (   715 PWs)   bands (ev):

   -38.4313 -19.7823  -9.2684  -3.2670  -1.3173  -0.2810   4.3603   4.6036
    13.3965  14.6790  18.3405  21.3084

          k =-0.3620-0.3620 0.4270 (   718 PWs)   bands (ev):

   -38.4068 -19.6343  -9.3729  -3.1447  -2.1249  -0.4578   3.9837   4.4747
    13.3585  15.9716  17.2633  20.3427

          k = 0.3620-0.0325-0.0325 (   713 PWs)   bands (ev):

   -38.4292 -19.7741  -9.4887  -2.8773  -1.0493  -0.7029   3.9917   5.1763
    13.3551  14.2419  18.7020  21.3014

          k =-0.1810-0.5755 0.6080 (   711 PWs)   bands (ev):

   -38.4045 -19.6269  -9.5564  -2.6128  -1.8845  -1.1203   3.5878   4.9645
    13.2612  15.9717  18.1511  20.8004

          k =-0.0000-0.3945 0.3945 (   716 PWs)   bands (ev):

   -38.4069 -19.6373  -9.3368  -3.0235  -1.9018  -0.9639   3.8963   4.4119
    13.7124  15.7849  18.7606  20.3579

          k =-0.7239 0.0650 0.0650 (   724 PWs)   bands (ev):

   -38.4029 -19.6205  -9.7322  -2.3109  -1.7680  -1.2368   3.1627   5.5473
    12.7726  15.0006  19.3391  20.7319

          k =-0.7564 0.4270 0.0325 (   724 PWs)   bands (ev):

   -38.4028 -19.6168  -9.7638  -2.2023  -1.6421  -1.5228   3.6507   5.0449
    12.9558  16.0778  17.9189  20.7460

          k = 0.1485 0.1485 0.1485 (   715 PWs)   bands (ev):

   -38.4496 -19.8930  -9.8693  -2.3828  -0.3181  -0.3181   5.1963   5.1963
    12.1930  13.3695  18.6462  20.9821

          k =-0.2970-0.2970-0.2970 (   718 PWs)   bands (ev):

   -38.4428 -19.8647 -10.4174  -1.2387  -0.5185  -0.5185   5.6141   5.6141
    11.2424  13.7216  17.4235  20.6913

          k = 0.5104-0.2785 0.5104 (   711 PWs)   bands (ev):

   -38.4048 -19.6268  -9.5626  -2.8055  -1.8342  -0.8900   3.7157   4.7960
    13.4070  15.0139  18.6021  20.6631

          k =-0.4779-0.4779-0.0835 (   711 PWs)   bands (ev):

   -38.4228 -19.7433 -10.1070  -1.6575  -1.2808  -0.8925   4.2866   5.5813
    12.1917  14.8439  17.2315  20.9818

          k = 0.3295-0.0650 0.3295 (   716 PWs)   bands (ev):

   -38.4248 -19.7514  -9.9353  -2.0820  -1.4673  -0.5171   4.8032   4.8991
    12.6570  14.7976  16.7501  21.2486

     the Fermi energy is     4.9986 ev

!    total energy              =     -97.58634459 Ry
     estimated scf accuracy    <          3.4E-09 Ry
     smearing contrib. (-TS)   =      -0.00671892 Ry
     internal energy E=F+TS    =     -97.57962568 Ry

     The total energy is F=E-TS. E is the sum of the following terms:
     one-electron contribution =     -29.56334545 Ry
     hartree contribution      =      21.59293657 Ry
     xc contribution           =     -18.41054379 Ry
     ewald contribution        =     -52.14199638 Ry
     one-center paw contrib.   =     -19.05667663 Ry

     convergence has been achieved in   7 iterations

     Forces acting on atoms (cartesian axes, Ry/au):

     atom    1 type  1   force =    -0.08853775   -0.08853775   -0.08853775
     atom    2 type  2   force =     0.07140022    0.07140022    0.07140022
     atom    3 type  2   force =     0.01713753    0.01713753    0.01713753

     Total force =     0.199228     Total SCF correction =     0.000145


     Computing stress (Cartesian axis) and pressure

          total   stress  (Ry/bohr**3)                   (kbar)     P=      376.56
   0.00255981   0.00111456   0.00111456          376.56      163.96      163.96
   0.00111456   0.00255981   0.00111456          163.96      376.56      163.96
   0.00111456   0.00111456   0.00255981          163.96      163.96      376.56

     Energy error            =      5.8E-02 Ry
     Gradient error          =      8.9E-02 Ry/Bohr
     Cell gradient error     =      3.8E+02 kbar

     number of scf cycles    =   7
     number of bfgs steps    =   6

     enthalpy           old  =     -97.5287109886 Ry
     enthalpy           new  =     -97.5863445927 Ry

     CASE: enthalpy          _new < enthalpy          _old

     new trust radius        =       0.0863092054 bohr
     new conv_thr            =       0.0000000089 Ry

     new unit-cell volume =    177.45099 a.u.^3 (    26.29552 Ang^3 )
     density =      0.18945 g/cm^3

CELL_PARAMETERS (angstrom)
   0.475559905   2.620350477   2.620350477
   2.620350477   0.475559905   2.620350477
   2.620350477   2.620350477   0.475559905

ATOMIC_POSITIONS (angstrom)
Li              -0.4135924870       -0.4135924870       -0.4135924870
O                0.4583733571        0.4583733571        0.4583733571
O                1.1889155610        1.1889155610        1.1889155610



     Writing config-only to output data dir ./tmp/pwscf.save/ :
     XML data file
     NEW-OLD atomic charge density approx. for the potential
     New effective cutoffs (rho, wfc):  369.71   46.47

     Check: negative core charge=   -0.000009

     total cpu time spent up to now is       13.5 secs

     Self-consistent Calculation

     iteration #  1     ecut=    40.00 Ry     beta= 0.70
     Davidson diagonalization with overlap
     ethr =  1.00E-06,  avg # of iterations =  9.4

     total cpu time spent up to now is       13.9 secs

     total energy              =     -97.61248141 Ry
     estimated scf accuracy    <       0.00336056 Ry

     iteration #  2     ecut=    40.00 Ry     beta= 0.70
     Davidson diagonalization with overlap
     ethr =  2.24E-05,  avg # of iterations =  2.6

     total cpu time spent up to now is       14.1 secs

     total energy              =     -97.61424440 Ry
     estimated scf accuracy    <       0.00216040 Ry

     iteration #  3     ecut=    40.00 Ry     beta= 0.70
     Davidson diagonalization with overlap
     ethr =  1.44E-05,  avg # of iterations =  1.7

     total cpu time spent up to now is       14.3 secs

     total energy              =     -97.61442034 Ry
     estimated scf accuracy    <       0.00021008 Ry

     iteration #  4     ecut=    40.00 Ry     beta= 0.70
     Davidson diagonalization with overlap
     ethr =  1.40E-06,  avg # of iterations =  2.0

     total cpu time spent up to now is       14.4 secs

     total energy              =     -97.61442287 Ry
     estimated scf accuracy    <       0.00008173 Ry

     iteration #  5     ecut=    40.00 Ry     beta= 0.70
     Davidson diagonalization with overlap
     ethr =  5.45E-07,  avg # of iterations =  2.0

     total cpu time spent up to now is       14.6 secs

     total energy              =     -97.61444255 Ry
     estimated scf accuracy    <       0.00000138 Ry

     iteration #  6     ecut=    40.00 Ry     beta= 0.70
     Davidson diagonalization with overlap
     ethr =  9.19E-09,  avg # of iterations =  2.2

     total cpu time spent up to now is       14.8 secs

     total energy              =     -97.61444305 Ry
     estimated scf accuracy    <       0.00000006 Ry

     iteration #  7     ecut=    40.00 Ry     beta= 0.70
     Davidson diagonalization with overlap
     ethr =  3.92E-10,  avg # of iterations =  2.6

     total cpu time spent up to now is       15.0 secs

     End of self-consistent calculation

          k = 0.0000 0.0000 0.0000 (   725 PWs)   bands (ev):

   -39.4661 -21.0526 -10.0008  -4.2915  -1.2482  -1.2482   4.0568   4.0568
    10.5467  14.1848  19.8954  19.8954

          k = 0.1751 0.1751-0.2068 (   715 PWs)   bands (ev):

   -39.4498 -20.9432 -10.0563  -4.0063  -2.2661  -1.4132   3.7203   3.8679
    12.0991  14.0420  16.6995  19.4927

          k =-0.3501-0.3501 0.4137 (   718 PWs)   bands (ev):

   -39.4345 -20.8293 -10.1182  -3.8145  -3.0378  -1.5687   3.4000   3.6999
    12.6107  14.6949  15.6802  18.8052

          k = 0.3501-0.0318-0.0318 (   713 PWs)   bands (ev):

   -39.4487 -20.9374 -10.2223  -3.6940  -2.0669  -1.7184   3.3595   4.3747
    12.1296  13.5235  17.0924  19.3552

          k =-0.1751-0.5570 0.5887 (   711 PWs)   bands (ev):

   -39.4330 -20.8237 -10.2594  -3.3883  -2.7820  -2.1205   2.9810   4.1555
    12.7264  14.4051  16.5306  19.0558

          k =-0.0000-0.3819 0.3819 (   716 PWs)   bands (ev):

   -39.4346 -20.8308 -10.0942  -3.7596  -2.7624  -2.0011   3.2708   3.6820
    13.1350  14.2222  17.1165  18.6995

          k =-0.7002 0.0635 0.0635 (   724 PWs)   bands (ev):

   -39.4326 -20.8200 -10.3961  -3.1448  -2.7489  -2.1462   2.5717   4.6601
    12.2984  13.6338  17.5639  18.7404

          k =-0.7320 0.4137 0.0318 (   724 PWs)   bands (ev):

   -39.4325 -20.8182 -10.4170  -3.0319  -2.6387  -2.4194   2.9974   4.2297
    12.4643  14.4815  16.3224  18.7692

          k = 0.1433 0.1433 0.1433 (   715 PWs)   bands (ev):

   -39.4621 -21.0329 -10.5259  -3.3288  -1.4119  -1.4119   4.4082   4.4082
    10.8267  12.7592  16.8295  19.3893

          k =-0.2866-0.2866-0.2866 (   718 PWs)   bands (ev):

   -39.4578 -21.0132 -10.9573  -2.3946  -1.5617  -1.5617   4.7464   4.7464
    10.3474  12.4031  16.0035  19.1223

          k = 0.4934-0.2704 0.4934 (   711 PWs)   bands (ev):

   -39.4335 -20.8239 -10.2626  -3.5514  -2.7973  -1.8791   3.0632   4.0478
    12.9188  13.5840  16.8064  18.9588

          k =-0.4616-0.4616-0.0797 (   711 PWs)   bands (ev):

   -39.4452 -20.9179 -10.6971  -2.6835  -2.2760  -1.8635   3.5738   4.7003
    11.4742  13.4645  15.7914  19.0701

          k = 0.3184-0.0635 0.3184 (   716 PWs)   bands (ev):

   -39.4462 -20.9227 -10.5620  -3.0130  -2.4255  -1.5818   4.0715   4.0896
    11.8921  13.3816  15.4184  19.2449

     the Fermi energy is     4.2098 ev

!    total energy              =     -97.61444307 Ry
     estimated scf accuracy    <          6.7E-09 Ry
     smearing contrib. (-TS)   =      -0.00730606 Ry
     internal energy E=F+TS    =     -97.60713701 Ry

     The total energy is F=E-TS. E is the sum of the following terms:
     one-electron contribution =     -33.75435388 Ry
     hartree contribution      =      23.15508430 Ry
     xc contribution           =     -18.35351885 Ry
     ewald contribution        =     -49.60035482 Ry
     one-center paw contrib.   =     -19.05399376 Ry

     convergence has been achieved in   7 iterations

     Forces acting on atoms (cartesian axes, Ry/au):

     atom    1 type  1   force =    -0.05729720   -0.05729720   -0.05729720
     atom    2 type  2   force =    -0.01708817   -0.01708817   -0.01708817
     atom    3 type  2   force =     0.07438538    0.07438538    0.07438538

     Total force =     0.165301     Total SCF correction =     0.000310


     Computing stress (Cartesian axis) and pressure

          total   stress  (Ry/bohr**3)                   (kbar)     P=      197.02
   0.00133929   0.00089221   0.00089221          197.02      131.25      131.25
   0.00089221   0.00133929   0.00089221          131.25      197.02      131.25
   0.00089221   0.00089221   0.00133929          131.25      131.25      197.02

     Energy error            =      2.8E-02 Ry
     Gradient error          =      7.4E-02 Ry/Bohr
     Cell gradient error     =      2.0E+02 kbar

     number of scf cycles    =   8
     number of bfgs steps    =   7

     enthalpy           old  =     -97.5863445927 Ry
     enthalpy           new  =     -97.6144430745 Ry

     CASE: enthalpy          _new < enthalpy          _old

     new trust radius        =       0.0596722925 bohr
     new conv_thr            =       0.0000000074 Ry

     new unit-cell volume =    189.64177 a.u.^3 (    28.10201 Ang^3 )
     density =      0.17727 g/cm^3

CELL_PARAMETERS (angstrom)
   0.484830926   2.678217602   2.678217602
   2.678217602   0.484830926   2.678217602
   2.678217602   2.678217602   0.484830926

ATOMIC_POSITIONS (angstrom)
Li              -0.4186451335       -0.4186451335       -0.4186451335
O                0.4663029407        0.4663029407        0.4663029407
O                1.2130175460        1.2130175460        1.2130175460



     Writing config-only to output data dir ./tmp/pwscf.save/ :
     XML data file
     NEW-OLD atomic charge density approx. for the potential
     New effective cutoffs (rho, wfc):  353.51   44.44

     Check: negative core charge=   -0.000010

     total cpu time spent up to now is       15.2 secs

     Self-consistent Calculation

     iteration #  1     ecut=    40.00 Ry     beta= 0.70
     Davidson diagonalization with overlap
     ethr =  1.00E-06,  avg # of iterations =  7.5

     total cpu time spent up to now is       15.5 secs

     total energy              =     -97.62270531 Ry
     estimated scf accuracy    <       0.00024825 Ry

     iteration #  2     ecut=    40.00 Ry     beta= 0.70
     Davidson diagonalization with overlap
     ethr =  1.66E-06,  avg # of iterations =  2.9

     total cpu time spent up to now is       15.7 secs

     total energy              =     -97.62282131 Ry
     estimated scf accuracy    <       0.00036104 Ry

     iteration #  3     ecut=    40.00 Ry     beta= 0.70
     Davidson diagonalization with overlap
     ethr =  1.66E-06,  avg # of iterations =  1.8

     total cpu time spent up to now is       15.9 secs

     total energy              =     -97.62281179 Ry
     estimated scf accuracy    <       0.00005237 Ry

     iteration #  4     ecut=    40.00 Ry     beta= 0.70
     Davidson diagonalization with overlap
     ethr =  3.49E-07,  avg # of iterations =  2.0

     total cpu time spent up to now is       16.1 secs

     total energy              =     -97.62280572 Ry
     estimated scf accuracy    <       0.00002124 Ry

     iteration #  5     ecut=    40.00 Ry     beta= 0.70
     Davidson diagonalization with overlap
     ethr =  1.42E-07,  avg # of iterations =  2.0

     total cpu time spent up to now is       16.3 secs

     total energy              =     -97.62281141 Ry
     estimated scf accuracy    <       0.00000012 Ry

     iteration #  6     ecut=    40.00 Ry     beta= 0.70
     Davidson diagonalization with overlap
     ethr =  7.94E-10,  avg # of iterations =  3.5

     total cpu time spent up to now is       16.5 secs

     total energy              =     -97.62281155 Ry
     estimated scf accuracy    <       0.00000003 Ry

     iteration #  7     ecut=    40.00 Ry     beta= 0.70
     Davidson diagonalization with overlap
     ethr =  1.80E-10,  avg # of iterations =  1.9

     total cpu time spent up to now is       16.6 secs

     End of self-consistent calculation

          k = 0.0000 0.0000 0.0000 (   725 PWs)   bands (ev):

   -40.1507 -21.0440 -10.7566  -4.6224  -1.6228  -1.6228   3.3262   3.3262
     9.6687  12.8495  18.8581  18.8582

          k = 0.1712 0.1712-0.2022 (   715 PWs)   bands (ev):

   -40.1383 -20.9435 -10.8012  -4.3450  -2.5777  -1.7697   3.0244   3.1576
    11.1098  12.7596  15.7919  18.4349

          k =-0.3424-0.3424 0.4044 (   718 PWs)   bands (ev):

   -40.1273 -20.8396 -10.8510  -4.0980  -3.3730  -1.9091   2.7356   3.0040
    11.4733  13.6215  14.7402  17.7545

          k = 0.3424-0.0310-0.0310 (   713 PWs)   bands (ev):

   -40.1376 -20.9363 -10.9431  -4.0641  -2.3898  -2.0537   2.6950   3.6219
    11.1102  12.3161  16.1188  18.2714

          k =-0.1712-0.5447 0.5756 (   711 PWs)   bands (ev):

   -40.1260 -20.8325 -10.9741  -3.7379  -3.0907  -2.4222   2.3570   3.4205
    11.4881  13.4064  15.5434  17.9341

          k =-0.0000-0.3734 0.3734 (   716 PWs)   bands (ev):

   -40.1274 -20.8409 -10.8331  -4.0886  -3.0591  -2.3146   2.6270   2.9831
    11.9132  13.1453  16.1536  17.6203

          k =-0.6849 0.0620 0.0620 (   724 PWs)   bands (ev):

   -40.1263 -20.8276 -11.0943  -3.5016  -3.0737  -2.4510   1.9750   3.8804
    11.0997  12.6934  16.4681  17.5683

          k =-0.7159 0.4044 0.0310 (   724 PWs)   bands (ev):

   -40.1262 -20.8260 -11.1101  -3.4280  -2.9486  -2.7014   2.3678   3.4871
    11.1784  13.5761  15.2794  17.5858

          k = 0.1402 0.1402 0.1402 (   715 PWs)   bands (ev):

   -40.1479 -21.0201 -11.2041  -3.7547  -1.7755  -1.7755   3.6501   3.6501
     9.8835  11.5702  15.7160  18.3961

          k =-0.2804-0.2804-0.2804 (   718 PWs)   bands (ev):

   -40.1447 -20.9965 -11.5837  -2.8962  -1.9176  -1.9176   3.9601   3.9601
     9.3176  11.3516  14.8824  18.1459

          k = 0.4827-0.2642 0.4827 (   711 PWs)   bands (ev):

   -40.1267 -20.8326 -10.9763  -3.8616  -3.1380  -2.1985   2.4278   3.3295
    11.6215  12.7162  15.7619  17.8112

          k =-0.4517-0.4517-0.0782 (   711 PWs)   bands (ev):

   -40.1356 -20.9134 -11.3540  -3.1553  -2.5783  -2.1915   2.8886   3.9161
    10.2987  12.4926  14.7777  17.9186

          k = 0.3114-0.0620 0.3114 (   716 PWs)   bands (ev):

   -40.1360 -20.9193 -11.2344  -3.4366  -2.7387  -1.9281   3.3486   3.3578
    10.6816  12.4365  14.4615  18.0448

     the Fermi energy is     3.4748 ev

!    total energy              =     -97.62281156 Ry
     estimated scf accuracy    <          8.4E-10 Ry
     smearing contrib. (-TS)   =      -0.00769956 Ry
     internal energy E=F+TS    =     -97.61511200 Ry

     The total energy is F=E-TS. E is the sum of the following terms:
     one-electron contribution =     -35.55280892 Ry
     hartree contribution      =      23.75758931 Ry
     xc contribution           =     -18.27483021 Ry
     ewald contribution        =     -48.48565290 Ry
     one-center paw contrib.   =     -19.05940928 Ry

     convergence has been achieved in   7 iterations

     Forces acting on atoms (cartesian axes, Ry/au):

     atom    1 type  1   force =    -0.05361968   -0.05361968   -0.05361968
     atom    2 type  2   force =     0.00837136    0.00837136    0.00837136
     atom    3 type  2   force =     0.04524831    0.04524831    0.04524831

     Total force =     0.122383     Total SCF correction =     0.000029


     Computing stress (Cartesian axis) and pressure

          total   stress  (Ry/bohr**3)                   (kbar)     P=       57.61
   0.00039161   0.00042677   0.00042677           57.61       62.78       62.78
   0.00042677   0.00039161   0.00042677           62.78       57.61       62.78
   0.00042677   0.00042677   0.00039161           62.78       62.78       57.61

     Energy error            =      8.4E-03 Ry
     Gradient error          =      5.4E-02 Ry/Bohr
     Cell gradient error     =      6.3E+01 kbar

     number of scf cycles    =   9
     number of bfgs steps    =   8

     enthalpy           old  =     -97.6144430745 Ry
     enthalpy           new  =     -97.6228115585 Ry

     CASE: enthalpy          _new < enthalpy          _old

     new trust radius        =       0.0149666087 bohr
     new conv_thr            =       0.0000000054 Ry

     new unit-cell volume =    192.71006 a.u.^3 (    28.55668 Ang^3 )
     density =      0.17445 g/cm^3

CELL_PARAMETERS (angstrom)
   0.484449346   2.690823988   2.690823988
   2.690823988   0.484449346   2.690823988
   2.690823988   2.690823988   0.484449346

ATOMIC_POSITIONS (angstrom)
Li              -0.4250168373       -0.4250168373       -0.4250168373
O                0.4691710257        0.4691710257        0.4691710257
O                1.2218802893        1.2218802893        1.2218802893



     Writing config-only to output data dir ./tmp/pwscf.save/ :
     XML data file
     NEW-OLD atomic charge density approx. for the potential
     New effective cutoffs (rho, wfc):  349.37   43.92

     Check: negative core charge=   -0.000010

     total cpu time spent up to now is       16.9 secs

     Self-consistent Calculation

     iteration #  1     ecut=    40.00 Ry     beta= 0.70
     Davidson diagonalization with overlap
     ethr =  1.00E-06,  avg # of iterations =  5.1

     total cpu time spent up to now is       17.1 secs

     total energy              =     -97.62561682 Ry
     estimated scf accuracy    <       0.00004217 Ry

     iteration #  2     ecut=    40.00 Ry     beta= 0.70
     Davidson diagonalization with overlap
     ethr =  2.81E-07,  avg # of iterations =  2.0

     total cpu time spent up to now is       17.3 secs

     total energy              =     -97.62561619 Ry
     estimated scf accuracy    <       0.00001384 Ry

     iteration #  3     ecut=    40.00 Ry     beta= 0.70
     Davidson diagonalization with overlap
     ethr =  9.23E-08,  avg # of iterations =  2.0

     total cpu time spent up to now is       17.5 secs

     total energy              =     -97.62561599 Ry
     estimated scf accuracy    <       0.00001384 Ry

     iteration #  4     ecut=    40.00 Ry     beta= 0.70
     Davidson diagonalization with overlap
     ethr =  9.23E-08,  avg # of iterations =  2.0

     total cpu time spent up to now is       17.7 secs

     total energy              =     -97.62561924 Ry
     estimated scf accuracy    <       0.00000129 Ry

     iteration #  5     ecut=    40.00 Ry     beta= 0.70
     Davidson diagonalization with overlap
     ethr =  8.61E-09,  avg # of iterations =  2.0

     total cpu time spent up to now is       17.8 secs

     total energy              =     -97.62561955 Ry
     estimated scf accuracy    <       0.00000001 Ry

     iteration #  6     ecut=    40.00 Ry     beta= 0.70
     Davidson diagonalization with overlap
     ethr =  8.64E-11,  avg # of iterations =  3.7

     total cpu time spent up to now is       18.0 secs

     End of self-consistent calculation

          k = 0.0000 0.0000 0.0000 (   725 PWs)   bands (ev):

   -40.3165 -20.9827 -10.9340  -4.6941  -1.6856  -1.6856   3.1377   3.1377
     9.4750  12.4402  16.9793  18.5791

          k = 0.1703 0.1703-0.2009 (   715 PWs)   bands (ev):

   -40.3048 -20.8843 -10.9827  -4.4134  -2.6257  -1.8289   2.8445   2.9803
    10.8770  12.3791  15.5842  18.1898

          k =-0.3406-0.3406 0.4019 (   718 PWs)   bands (ev):

   -40.2946 -20.7825 -11.0360  -4.1485  -3.4265  -1.9651   2.5632   2.8380
    11.1518  13.3520  14.5292  17.4966

          k = 0.3406-0.0307-0.0307 (   713 PWs)   bands (ev):

   -40.3042 -20.8759 -11.1237  -4.1337  -2.4381  -2.1111   2.5283   3.4306
    10.8486  11.9745  15.8835  18.0300

          k =-0.1703-0.5415 0.5722 (   711 PWs)   bands (ev):

   -40.2933 -20.7743 -11.1590  -3.8012  -3.1385  -2.4664   2.2031   3.2388
    11.1196  13.1769  15.3095  17.6889

          k =-0.0000-0.3712 0.3712 (   716 PWs)   bands (ev):

   -40.2947 -20.7839 -11.0190  -4.1540  -3.1006  -2.3623   2.4633   2.8115
    11.5563  12.8940  15.9315  17.3812

          k =-0.6812 0.0613 0.0613 (   724 PWs)   bands (ev):

   -40.2938 -20.7683 -11.2793  -3.5619  -3.1171  -2.5043   1.8333   3.6844
    10.7229  12.4770  16.2028  17.3253

          k =-0.7118 0.4019 0.0307 (   724 PWs)   bands (ev):

   -40.2937 -20.7666 -11.2941  -3.5048  -2.9841  -2.7438   2.2131   3.3025
    10.7931  13.3710  15.0230  17.3424

          k = 0.1396 0.1396 0.1396 (   715 PWs)   bands (ev):

   -40.3139 -20.9553 -11.3783  -3.8282  -1.8377  -1.8377   3.4568   3.4568
     9.6478  11.2391  15.4633  18.1303

          k =-0.2793-0.2793-0.2793 (   718 PWs)   bands (ev):

   -40.3109 -20.9281 -11.7570  -2.9686  -1.9796  -1.9796   3.7616   3.7616
     9.0166  11.0970  14.6284  17.8846

          k = 0.4802-0.2623 0.4802 (   711 PWs)   bands (ev):

   -40.2941 -20.7743 -11.1610  -3.9223  -3.1787  -2.2528   2.2723   3.1467
    11.2384  12.5116  15.5261  17.5576

          k =-0.4495-0.4495-0.0783 (   711 PWs)   bands (ev):

   -40.3025 -20.8494 -11.5321  -3.2302  -2.6221  -2.2486   2.7192   3.7186
     9.9512  12.2533  14.5253  17.6857

          k = 0.3099-0.0613 0.3099 (   716 PWs)   bands (ev):

   -40.3028 -20.8565 -11.4126  -3.5072  -2.7862  -1.9869   3.1638   3.1779
    10.3344  12.2041  14.2248  17.7969

     the Fermi energy is     3.2906 ev

!    total energy              =     -97.62561957 Ry
     estimated scf accuracy    <          4.3E-10 Ry
     smearing contrib. (-TS)   =      -0.00782041 Ry
     internal energy E=F+TS    =     -97.61779916 Ry

     The total energy is F=E-TS. E is the sum of the following terms:
     one-electron contribution =     -35.87135683 Ry
     hartree contribution      =      23.85147121 Ry
     xc contribution           =     -18.25121958 Ry
     ewald contribution        =     -48.28550882 Ry
     one-center paw contrib.   =     -19.06118514 Ry

     convergence has been achieved in   6 iterations

     Forces acting on atoms (cartesian axes, Ry/au):

     atom    1 type  1   force =    -0.04842441   -0.04842441   -0.04842441
     atom    2 type  2   force =     0.01527751    0.01527751    0.01527751
     atom    3 type  2   force =     0.03314690    0.03314690    0.03314690

     Total force =     0.105029     Total SCF correction =     0.000058


     Computing stress (Cartesian axis) and pressure

          total   stress  (Ry/bohr**3)                   (kbar)     P=       21.40
   0.00014546   0.00026492   0.00026492           21.40       38.97       38.97
   0.00026492   0.00014546   0.00026492           38.97       21.40       38.97
   0.00026492   0.00026492   0.00014546           38.97       38.97       21.40

     Energy error            =      2.8E-03 Ry
     Gradient error          =      4.8E-02 Ry/Bohr
     Cell gradient error     =      3.9E+01 kbar

     number of scf cycles    =  10
     number of bfgs steps    =   9

     enthalpy           old  =     -97.6228115585 Ry
     enthalpy           new  =     -97.6256195723 Ry

     CASE: enthalpy          _new < enthalpy          _old

     new trust radius        =       0.0165332549 bohr
     new conv_thr            =       0.0000000028 Ry

     new unit-cell volume =    193.72103 a.u.^3 (    28.70649 Ang^3 )
     density =      0.17354 g/cm^3

CELL_PARAMETERS (angstrom)
   0.481756217   2.693434277   2.693434277
   2.693434277   0.481756217   2.693434277
   2.693434277   2.693434277   0.481756217

ATOMIC_POSITIONS (angstrom)
Li              -0.4302533851       -0.4302533851       -0.4302533851
O                0.4707057873        0.4707057873        0.4707057873
O                1.2261275555        1.2261275555        1.2261275555



     Writing config-only to output data dir ./tmp/pwscf.save/ :
     XML data file
     NEW-OLD atomic charge density approx. for the potential
     New effective cutoffs (rho, wfc):  347.71   43.71

     Check: negative core charge=   -0.000010

     total cpu time spent up to now is       18.3 secs

     Self-consistent Calculation

     iteration #  1     ecut=    40.00 Ry     beta= 0.70
     Davidson diagonalization with overlap
     ethr =  1.00E-06,  avg # of iterations =  4.0

     total cpu time spent up to now is       18.5 secs

     total energy              =     -97.62763216 Ry
     estimated scf accuracy    <       0.00002987 Ry

     iteration #  2     ecut=    40.00 Ry     beta= 0.70
     Davidson diagonalization with overlap
     ethr =  1.99E-07,  avg # of iterations =  2.0

[...]
     ethr =  1.01E-11,  avg # of iterations =  3.2

     total cpu time spent up to now is       49.1 secs

     total energy              =     -97.65792811 Ry
     estimated scf accuracy    <          1.5E-10 Ry

     iteration #  6     ecut=    40.00 Ry     beta= 0.70
     Davidson diagonalization with overlap
     ethr =  9.79E-13,  avg # of iterations =  2.2

     total cpu time spent up to now is       49.2 secs

     End of self-consistent calculation

          k = 0.0000 0.0000 0.0000 (   725 PWs)   bands (ev):

   -40.6229 -19.9167  -9.6552  -3.9040  -1.0483  -1.0483   3.3351   3.3351
    10.3539  10.9252  17.3802  17.3802

          k = 0.1708 0.1708-0.1840 (   715 PWs)   bands (ev):

   -40.6145 -19.8244  -9.9365  -3.5978  -1.7195  -1.1421   3.0554   3.4074
    10.4218  11.8988  16.7409  18.5064

          k =-0.3415-0.3415 0.3680 (   718 PWs)   bands (ev):

   -40.6063 -19.7282 -10.2064  -3.0066  -2.7192  -1.2280   2.7711   3.6421
    10.4818  13.2228  15.1204  18.3737

          k = 0.3415-0.0133-0.0133 (   713 PWs)   bands (ev):

   -40.6137 -19.7589 -10.3294  -3.1383  -1.6756  -1.3083   2.7787   3.9360
    10.0037  12.2700  16.5564  17.6448

          k =-0.1708-0.5255 0.5388 (   711 PWs)   bands (ev):

   -40.6055 -19.6601 -10.5544  -2.8271  -2.4005  -1.4254   2.6079   3.9218
    10.3492  13.3096  16.1244  17.6205

          k =-0.0000-0.3548 0.3548 (   716 PWs)   bands (ev):

   -40.6063 -19.7293 -10.1756  -3.5568  -1.8697  -1.4815   2.9227   3.2120
    10.5824  13.1100  16.5886  17.9058

          k =-0.6830 0.0265 0.0265 (   724 PWs)   bands (ev):

   -40.6049 -19.5911 -10.8827  -2.2079  -2.1989  -2.0269   2.4019   4.4501
    10.2307  12.3009  16.6609  18.1194

          k =-0.6963 0.3680 0.0133 (   724 PWs)   bands (ev):

   -40.6048 -19.5894 -10.8935  -2.8845  -2.2133  -1.1539   2.5720   3.9999
    10.3212  13.1831  15.7890  17.7658

          k = 0.1575 0.1575 0.1575 (   715 PWs)   bands (ev):

   -40.6204 -19.7175 -10.8456  -2.3513  -1.3388  -1.3388   3.8303   3.8303
     9.3553  12.4260  15.0813  16.6801

          k =-0.3150-0.3150-0.3150 (   718 PWs)   bands (ev):

   -40.6179 -19.4943 -11.7854  -1.5916  -1.5916  -0.9796   4.2735   4.2735
     9.4439  11.6045  14.1220  16.3233

          k = 0.4990-0.2105 0.4990 (   711 PWs)   bands (ev):

   -40.6056 -19.6607 -10.5467  -3.3511  -1.7759  -1.3741   2.6483   3.6697
    10.3480  12.8519  16.1927  17.9150

          k =-0.4857-0.4857-0.1310 (   711 PWs)   bands (ev):

   -40.6114 -19.5443 -11.3564  -2.1226  -1.9056  -1.2147   3.1715   4.3694
     9.8980  12.1271  14.9553  17.1964

          k = 0.3282-0.0265 0.3282 (   716 PWs)   bands (ev):

   -40.6121 -19.6174 -11.0479  -2.4279  -1.6682  -1.4477   3.5558   3.7789
     9.8595  12.7535  14.7454  17.1804

     the Fermi energy is     3.8663 ev

!    total energy              =     -97.65792811 Ry
     estimated scf accuracy    <          1.2E-11 Ry
     smearing contrib. (-TS)   =      -0.00683408 Ry
     internal energy E=F+TS    =     -97.65109402 Ry

     The total energy is F=E-TS. E is the sum of the following terms:
     one-electron contribution =     -32.04638009 Ry
     hartree contribution      =      22.24774979 Ry
     xc contribution           =     -18.15977851 Ry
     ewald contribution        =     -50.61255006 Ry
     one-center paw contrib.   =     -19.08013515 Ry

     convergence has been achieved in   6 iterations

     Forces acting on atoms (cartesian axes, Ry/au):

     atom    1 type  1   force =     0.00000499    0.00000499    0.00000499
     atom    2 type  2   force =    -0.00001712   -0.00001712   -0.00001712
     atom    3 type  2   force =     0.00001214    0.00001214    0.00001214

     Total force =     0.000037     Total SCF correction =     0.000006
     SCF correction compared to forces is large: reduce conv_thr to get better values


     Computing stress (Cartesian axis) and pressure

          total   stress  (Ry/bohr**3)                   (kbar)     P=       -0.23
  -0.00000159   0.00000022   0.00000022           -0.23        0.03        0.03
   0.00000022  -0.00000159   0.00000022            0.03       -0.23        0.03
   0.00000022   0.00000022  -0.00000159            0.03        0.03       -0.23

     Energy error            =      1.4E-06 Ry
     Gradient error          =      1.7E-05 Ry/Bohr
     Cell gradient error     =      2.3E-01 kbar

     bfgs converged in  29 scf cycles and  28 bfgs steps
     (criteria: energy <  1.0E-04 Ry, force <  1.0E-03 Ry/Bohr, cell <  5.0E-01 kbar)

     End of BFGS Geometry Optimization

     Final enthalpy           =     -97.6579281054 Ry

     File ./tmp/pwscf.bfgs deleted, as requested
Begin final coordinates
     new unit-cell volume =    187.09232 a.u.^3 (    27.72422 Ang^3 )
     density =      0.17968 g/cm^3

CELL_PARAMETERS (angstrom)
   0.194262394   2.503156388   2.503156388
   2.503156388   0.194262394   2.503156388
   2.503156388   2.503156388   0.194262394

ATOMIC_POSITIONS (angstrom)
Li              -0.7952712629       -0.7952712629       -0.7952712629
O                0.5675871607        0.5675871607        0.5675871607
O                1.3500840738        1.3500840738        1.3500840738
End final coordinates



     Writing config-only to output data dir ./tmp/pwscf.save/ :
     XML data file

     Final scf calculation at the relaxed structure.
     The G-vectors are recalculated for the final unit cell
     Results may differ from those at the preceding step.

     Parallelization info
     --------------------
     sticks:   dense  smooth     PW     G-vecs:    dense   smooth      PW
     Min         233     118     36                 4514     1610     283
     Max         234     119     37                 4515     1611     284
     Sum         933     475    147                18057     6443    1135

     Using Slab Decomposition



     bravais-lattice index     =            0
     lattice parameter (alat)  =       6.1914  a.u.
     unit-cell volume          =     187.0923 (a.u.)^3
     number of atoms/cell      =            3
     number of atomic types    =            2
     number of electrons       =        15.00
     number of Kohn-Sham states=           12
     kinetic-energy cutoff     =      40.0000  Ry
     charge density cutoff     =     320.0000  Ry
     scf convergence threshold =      1.0E-10
     mixing beta               =       0.7000
     number of iterations used =            8  plain     mixing
     press convergence thresh. =      5.0E-01
     Exchange-correlation= SLA  PW   PBX  PBC
                           (   1   4   3   4   0   0   0)

     celldm(1)=   6.191382  celldm(2)=   0.000000  celldm(3)=   0.000000
     celldm(4)=   0.000000  celldm(5)=   0.000000  celldm(6)=   0.000000

     crystal axes: (cart. coord. in units of alat)
               a(1) = (   0.059293   0.764010   0.764010 )  
               a(2) = (   0.764010   0.059293   0.764010 )  
               a(3) = (   0.764010   0.764010   0.059293 )  

     reciprocal axes: (cart. coord. in units 2 pi/alat)
               b(1) = ( -0.736007  0.683001  0.683001 )  
               b(2) = (  0.683001 -0.736007  0.683001 )  
               b(3) = (  0.683001  0.683001 -0.736007 )  


     PseudoPot. # 1 for Li read from file:
     ./li_pbe_v1.4.uspp.F.UPF
     MD5 check sum: e912e257baa3777c20ea3d68f190483c
     Pseudo is Ultrasoft, Zval =  3.0
     Generated by new atomic code, or converted to UPF format
     Using radial grid of  751 points,  5 beta functions with: 
                l(1) =   0
                l(2) =   0
                l(3) =   0
                l(4) =   1
                l(5) =   1
     Q(r) pseudized with 10 coefficients,  rinner =    1.150   1.150   1.150


     PseudoPot. # 2 for O  read from file:
     ./O.pbe-n-kjpaw_psl.0.1.UPF
     MD5 check sum: 0234752ac141de4415c5fc33072bef88
     Pseudo is Projector augmented-wave + core cor, Zval =  6.0
     Generated using "atomic" code by A. Dal Corso  v.5.0.99 svn rev. 10869
     Shape of augmentation charge: BESSEL
     Using radial grid of 1095 points,  4 beta functions with: 
                l(1) =   0
                l(2) =   0
                l(3) =   1
                l(4) =   1
     Q(r) pseudized with 0 coefficients 


     atomic species   valence    mass     pseudopotential
     Li                3.00     1.00000     Li( 1.00)
     O                 6.00     1.00000     O ( 1.00)

      6 Sym. Ops. (no inversion) found



   Cartesian axes

     site n.     atom                  positions (alat units)
         1        Li     tau(   1) = (  -0.2427317  -0.2427317  -0.2427317  )
         2        O      tau(   2) = (   0.1732383   0.1732383   0.1732383  )
         3        O      tau(   3) = (   0.4120710   0.4120710   0.4120710  )

     number of k points=    13  Gaussian smearing, width (Ry)=  0.0200
                       cart. coord. in units 2pi/alat
        k(    1) = (   0.0000000   0.0000000   0.0000000), wk =   0.0312500
        k(    2) = (   0.1707503   0.1707503  -0.1840017), wk =   0.1875000
        k(    3) = (  -0.3415005  -0.3415005   0.3680033), wk =   0.0937500
        k(    4) = (   0.3415005  -0.0132514  -0.0132514), wk =   0.1875000
        k(    5) = (  -0.1707503  -0.5255022   0.5387536), wk =   0.3750000
        k(    6) = (  -0.0000000  -0.3547519   0.3547519), wk =   0.1875000
        k(    7) = (  -0.6830010   0.0265028   0.0265028), wk =   0.0937500
        k(    8) = (  -0.6962524   0.3680033   0.0132514), wk =   0.1875000
        k(    9) = (   0.1574988   0.1574988   0.1574988), wk =   0.0625000
        k(   10) = (  -0.3149977  -0.3149977  -0.3149977), wk =   0.0312500
        k(   11) = (   0.4989993  -0.2105045   0.4989993), wk =   0.1875000
        k(   12) = (  -0.4857479  -0.4857479  -0.1309960), wk =   0.1875000
        k(   13) = (   0.3282491  -0.0265028   0.3282491), wk =   0.1875000

     Dense  grid:    18057 G-vectors     FFT dimensions: (  40,  40,  40)

     Smooth grid:     6443 G-vectors     FFT dimensions: (  27,  27,  27)

     Estimated max dynamical RAM per process >      10.27 MB

     Estimated total dynamical RAM >      41.06 MB

     Check: negative core charge=   -0.000005

     Initial potential from superposition of free atoms

     starting charge      14.5493, renormalised to      15.0000
     Starting wfcs are   13 randomized atomic wfcs
     Checking if some PAW data can be deallocated... 

     total cpu time spent up to now is       49.5 secs

     Self-consistent Calculation

     iteration #  1     ecut=    40.00 Ry     beta= 0.70
     Davidson diagonalization with overlap
     c_bands:  1 eigenvalues not converged
     c_bands:  1 eigenvalues not converged
     ethr =  1.00E-06,  avg # of iterations = 14.1

     total cpu time spent up to now is       50.0 secs

     total energy              =     -97.65973429 Ry
     estimated scf accuracy    <       0.06724262 Ry

     iteration #  2     ecut=    40.00 Ry     beta= 0.70
     Davidson diagonalization with overlap
     ethr =  4.48E-04,  avg # of iterations =  2.0

     total cpu time spent up to now is       50.2 secs

     total energy              =     -97.66594446 Ry
     estimated scf accuracy    <       0.00793241 Ry

     iteration #  3     ecut=    40.00 Ry     beta= 0.70
     Davidson diagonalization with overlap
     ethr =  5.29E-05,  avg # of iterations =  2.0

     total cpu time spent up to now is       50.4 secs

     total energy              =     -97.66603220 Ry
     estimated scf accuracy    <       0.01319289 Ry

     iteration #  4     ecut=    40.00 Ry     beta= 0.70
     Davidson diagonalization with overlap
     ethr =  5.29E-05,  avg # of iterations =  2.0

     total cpu time spent up to now is       50.6 secs

     total energy              =     -97.66884906 Ry
     estimated scf accuracy    <       0.00069081 Ry

     iteration #  5     ecut=    40.00 Ry     beta= 0.70
     Davidson diagonalization with overlap
     ethr =  4.61E-06,  avg # of iterations =  1.3

     total cpu time spent up to now is       50.8 secs

     total energy              =     -97.66898411 Ry
     estimated scf accuracy    <       0.00001279 Ry

     iteration #  6     ecut=    40.00 Ry     beta= 0.70
     Davidson diagonalization with overlap
     ethr =  8.53E-08,  avg # of iterations =  2.5

     total cpu time spent up to now is       51.0 secs

     total energy              =     -97.66898956 Ry
     estimated scf accuracy    <       0.00000077 Ry

     iteration #  7     ecut=    40.00 Ry     beta= 0.70
     Davidson diagonalization with overlap
     ethr =  5.12E-09,  avg # of iterations =  3.1

     total cpu time spent up to now is       51.2 secs

     total energy              =     -97.66898991 Ry
     estimated scf accuracy    <       0.00000013 Ry

     iteration #  8     ecut=    40.00 Ry     beta= 0.70
     Davidson diagonalization with overlap
     ethr =  8.84E-10,  avg # of iterations =  2.0

     total cpu time spent up to now is       51.4 secs

     total energy              =     -97.66898995 Ry
     estimated scf accuracy    <          2.2E-09 Ry

     iteration #  9     ecut=    40.00 Ry     beta= 0.70
     Davidson diagonalization with overlap
     ethr =  1.50E-11,  avg # of iterations =  3.6

     total cpu time spent up to now is       51.6 secs

     total energy              =     -97.66898995 Ry
     estimated scf accuracy    <          2.7E-10 Ry

     iteration # 10     ecut=    40.00 Ry     beta= 0.70
     Davidson diagonalization with overlap
     ethr =  1.78E-12,  avg # of iterations =  2.0

     total cpu time spent up to now is       51.8 secs

     End of self-consistent calculation

          k = 0.0000 0.0000 0.0000 (   785 PWs)   bands (ev):

   -40.6223 -19.9145  -9.6419  -3.9216  -1.0413  -1.0413   3.3440   3.3440
    10.3208  10.9207  17.3791  17.3791

          k = 0.1708 0.1708-0.1840 (   804 PWs)   bands (ev):

   -40.6140 -19.8229  -9.9249  -3.6195  -1.7215  -1.1399   3.0592   3.4111
    10.3736  11.8873  16.7390  18.1595

          k =-0.3415-0.3415 0.3680 (   808 PWs)   bands (ev):

   -40.6058 -19.7265 -10.1948  -3.0279  -2.7190  -1.2261   2.7762   3.6482
    10.4276  13.2191  15.1203  18.3551

          k = 0.3415-0.0133-0.0133 (   792 PWs)   bands (ev):

   -40.6132 -19.7573 -10.3184  -3.1574  -1.6732  -1.3083   2.7838   3.9427
     9.9681  12.2458  16.5530  17.6340

          k =-0.1708-0.5255 0.5388 (   797 PWs)   bands (ev):

   -40.6050 -19.6588 -10.5436  -2.8414  -2.4047  -1.4280   2.6114   3.9299
    10.2913  13.3021  16.1219  17.6112

          k =-0.0000-0.3548 0.3548 (   798 PWs)   bands (ev):

   -40.6058 -19.7275 -10.1640  -3.5718  -1.8725  -1.4805   2.9279   3.2195
    10.5300  13.1048  16.5884  17.8971

          k =-0.6830 0.0265 0.0265 (   812 PWs)   bands (ev):

   -40.6043 -19.5894 -10.8716  -2.2266  -2.1931  -2.0235   2.4062   4.4603
    10.1852  12.2998  16.6558  18.1044

          k =-0.6963 0.3680 0.0133 (   794 PWs)   bands (ev):

   -40.6042 -19.5875 -10.8823  -2.8893  -2.2110  -1.1586   2.5796   4.0125
    10.2813  13.1832  15.7866  17.7522

          k = 0.1575 0.1575 0.1575 (   803 PWs)   bands (ev):

   -40.6198 -19.7159 -10.8355  -2.3730  -1.3389  -1.3389   3.8361   3.8361
     9.3341  12.3916  15.0776  16.6783

          k =-0.3150-0.3150-0.3150 (   798 PWs)   bands (ev):

   -40.6173 -19.4932 -11.7756  -1.5869  -1.5869  -1.0035   4.2800   4.2800
     9.4152  11.6018  14.0937  16.3223

          k = 0.4990-0.2105 0.4990 (   794 PWs)   bands (ev):

   -40.6050 -19.6592 -10.5353  -3.3611  -1.7759  -1.3852   2.6547   3.6745
    10.3005  12.8437  16.1866  17.9010

          k =-0.4857-0.4857-0.1310 (   794 PWs)   bands (ev):

   -40.6108 -19.5425 -11.3459  -2.1282  -1.9040  -1.2231   3.1810   4.3785
     9.8679  12.1217  14.9462  17.1845

          k = 0.3282-0.0265 0.3282 (   798 PWs)   bands (ev):

   -40.6116 -19.6160 -11.0375  -2.4354  -1.6793  -1.4456   3.5616   3.7860
     9.8244  12.7352  14.7406  17.1709

     the Fermi energy is     3.8739 ev

!    total energy              =     -97.66898995 Ry
     estimated scf accuracy    <          7.4E-12 Ry
     smearing contrib. (-TS)   =      -0.00679784 Ry
     internal energy E=F+TS    =     -97.66219212 Ry

     The total energy is F=E-TS. E is the sum of the following terms:
     one-electron contribution =     -32.06301458 Ry
     hartree contribution      =      22.25366502 Ry
     xc contribution           =     -18.16155728 Ry
     ewald contribution        =     -50.61255006 Ry
     one-center paw contrib.   =     -19.07873522 Ry

     convergence has been achieved in  10 iterations

     Forces acting on atoms (cartesian axes, Ry/au):

     atom    1 type  1   force =     0.00000272    0.00000272    0.00000272
     atom    2 type  2   force =    -0.00896324   -0.00896324   -0.00896324
     atom    3 type  2   force =     0.00896052    0.00896052    0.00896052

     Total force =     0.021952     Total SCF correction =     0.000013


     Computing stress (Cartesian axis) and pressure

          total   stress  (Ry/bohr**3)                   (kbar)     P=       56.84
   0.00038641   0.00019487   0.00019487           56.84       28.67       28.67
   0.00019487   0.00038641   0.00019487           28.67       56.84       28.67
   0.00019487   0.00019487   0.00038641           28.67       28.67       56.84


     Writing all to output data dir ./tmp/pwscf.save/ :
     XML data file, charge density, pseudopotentials, collected wavefunctions

     init_run     :      0.49s CPU      0.50s WALL (       2 calls)
     electrons    :     41.76s CPU     44.18s WALL (      30 calls)
     update_pot   :      1.66s CPU      1.69s WALL (      28 calls)
     forces       :      0.71s CPU      0.73s WALL (      30 calls)
     stress       :      2.59s CPU      2.62s WALL (      30 calls)

     Called by init_run:
     wfcinit      :      0.08s CPU      0.08s WALL (       2 calls)
     potinit      :      0.15s CPU      0.15s WALL (       2 calls)
     hinit0       :      0.21s CPU      0.21s WALL (       2 calls)

     Called by electrons:
     c_bands      :     22.73s CPU     24.66s WALL (     221 calls)
     sum_band     :      4.57s CPU      4.77s WALL (     221 calls)
     v_of_rho     :      1.35s CPU      1.40s WALL (     250 calls)
     newd         :      1.62s CPU      1.65s WALL (     250 calls)
     PAW_pot      :     14.44s CPU     14.48s WALL (     278 calls)
     mix_rho      :      0.15s CPU      0.16s WALL (     221 calls)

     Called by c_bands:
     init_us_2    :      0.34s CPU      0.39s WALL (    6916 calls)
     cegterg      :     21.99s CPU     23.18s WALL (    2873 calls)

     Called by *egterg:
     cdiaghg      :      2.02s CPU      2.09s WALL (   10951 calls)
     h_psi        :     16.10s CPU     17.08s WALL (   11354 calls)
     s_psi        :      0.67s CPU      0.70s WALL (   11354 calls)
     g_psi        :      0.07s CPU      0.07s WALL (    8455 calls)

     Called by h_psi:
     h_psi:calbec :      0.78s CPU      0.82s WALL (   11354 calls)
     vloc_psi     :     14.47s CPU     15.37s WALL (   11354 calls)
                                        0.00s GPU  (   11354 calls)
     add_vuspsi   :      0.74s CPU      0.77s WALL (   11354 calls)

     General routines
     calbec       :      1.67s CPU      1.73s WALL (   21221 calls)
     fft          :      1.02s CPU      1.08s WALL (    3969 calls)
     ffts         :      0.06s CPU      0.06s WALL (     471 calls)
     fftw         :     15.71s CPU     16.67s WALL (  235142 calls)
     interpolate  :      0.12s CPU      0.12s WALL (     250 calls)

     Parallel routines

     PWSCF        :     49.27s CPU     51.98s WALL


   This run was terminated on:  19:24:30  29Dec2024            

=------------------------------------------------------------------------------=
   JOB DONE.
=------------------------------------------------------------------------------=
