
     Program PWSCF v.7.4 starts on 29Dec2024 at 19:23:38 

     This program is part of the open-source Quantum ESPRESSO suite
     for quantum simulation of materials; please cite
         "P. Giannozzi et al., J. Phys.:Condens. Matter 21 395502 (2009);
         "P. Giannozzi et al., J. Phys.:Condens. Matter 29 465901 (2017);
         "P. Giannozzi et al., J. Chem. Phys. 152 154105 (2020);
          URL http://www.quantum-espresso.org", 
     in publications or presentations arising from this work. More details at
     http://www.quantum-espresso.org/quote

     Parallel version (MPI), running on     4 processors

     MPI processes distributed on     1 nodes
     179736 MiB available memory on the printing compute node when the environment starts

     Reading input from input.in

     Current dimensions of program PWSCF are:
     Max number of different atomic species (ntypx) = 10
     Max number of k-points (npk) =  40000
     Max angular momentum in pseudopotentials (lmaxx) =  4
     file O.pbe-n-kjpaw_psl.0.1.UPF: wavefunction(s)  2P renormalized

     R & G space division:  proc/nbgrp/npool/nimage =       4
     Subspace diagonalization in iterative solution of the eigenvalue problem:
     a serial algorithm will be used


     Parallelization info
     --------------------
     sticks:   dense  smooth     PW     G-vecs:    dense   smooth      PW
     Min         400     198     66                 8969     3172     600
     Max         401     199     67                 8970     3173     601
     Sum        1603     793    265                35879    12689    2403

     Using Slab Decomposition



     bravais-lattice index     =            0
     lattice parameter (alat)  =       7.9338  a.u.
     unit-cell volume          =     371.0736 (a.u.)^3
     number of atoms/cell      =            6
     number of atomic types    =            2
     number of electrons       =        30.00
     number of Kohn-Sham states=           19
     kinetic-energy cutoff     =      40.0000  Ry
     charge density cutoff     =     320.0000  Ry
     scf convergence threshold =      1.0E-08
     mixing beta               =       0.7000
     number of iterations used =            8  plain     mixing
     energy convergence thresh.=      1.0E-04
     force convergence thresh. =      1.0E-03
     press convergence thresh. =      5.0E-01
     Exchange-correlation= SLA  PW   PBX  PBC
                           (   1   4   3   4   0   0   0)
     nstep                     =           50


     celldm(1)=   7.933786  celldm(2)=   0.000000  celldm(3)=   0.000000
     celldm(4)=   0.000000  celldm(5)=   0.000000  celldm(6)=   0.000000

     crystal axes: (cart. coord. in units of alat)
               a(1) = (   0.699620   0.714516   0.000000 )  
               a(2) = (  -0.699620   0.714516   0.000000 )  
               a(3) = (   0.000000   0.648581   0.743216 )  

     reciprocal axes: (cart. coord. in units 2 pi/alat)
               b(1) = (  0.714674  0.699775 -0.610671 )  
               b(2) = ( -0.714674  0.699775 -0.610671 )  
               b(3) = (  0.000000 -0.000000  1.345504 )  


     PseudoPot. # 1 for Li read from file:
     ./li_pbe_v1.4.uspp.F.UPF
     MD5 check sum: e912e257baa3777c20ea3d68f190483c
     Pseudo is Ultrasoft, Zval =  3.0
     Generated by new atomic code, or converted to UPF format
     Using radial grid of  751 points,  5 beta functions with: 
                l(1) =   0
                l(2) =   0
                l(3) =   0
                l(4) =   1
                l(5) =   1
     Q(r) pseudized with 10 coefficients,  rinner =    1.150   1.150   1.150


     PseudoPot. # 2 for O  read from file:
     ./O.pbe-n-kjpaw_psl.0.1.UPF
     MD5 check sum: 0234752ac141de4415c5fc33072bef88
     Pseudo is Projector augmented-wave + core cor, Zval =  6.0
     Generated using "atomic" code by A. Dal Corso  v.5.0.99 svn rev. 10869
     Shape of augmentation charge: BESSEL
     Using radial grid of 1095 points,  4 beta functions with: 
                l(1) =   0
                l(2) =   0
                l(3) =   1
                l(4) =   1
     Q(r) pseudized with 0 coefficients 


     atomic species   valence    mass     pseudopotential
     Li                3.00     1.00000     Li( 1.00)
     O                 6.00     1.00000     O ( 1.00)

     No symmetry found



   Cartesian axes

     site n.     atom                  positions (alat units)
         1        Li     tau(   1) = (   0.0599410   0.1782462   0.1190936  )
         2        Li     tau(   2) = (   0.1782462   0.0599410   0.1190936  )
         3        O      tau(   3) = (   0.0499836   0.1882036   0.0000000  )
         4        O      tau(   4) = (   0.1882036   0.0499836   0.0000000  )
         5        O      tau(   5) = (   0.1883122   0.1883122   0.0018224  )
         6        O      tau(   6) = (   0.0498750   0.0498750   0.2363648  )

     number of k points=    36  Gaussian smearing, width (Ry)=  0.0200
                       cart. coord. in units 2pi/alat
        k(    1) = (   0.0000000   0.0000000   0.0000000), wk =   0.0312500
        k(    2) = (   0.0000000   0.0000000   0.3363760), wk =   0.0625000
        k(    3) = (   0.0000000   0.0000000  -0.6727520), wk =   0.0312500
        k(    4) = (  -0.1786685   0.1749437  -0.1526678), wk =   0.0625000
        k(    5) = (  -0.1786685   0.1749437   0.1837082), wk =   0.0625000
        k(    6) = (  -0.1786685   0.1749437  -0.8254199), wk =   0.0625000
        k(    7) = (  -0.1786685   0.1749437  -0.4890439), wk =   0.0625000
        k(    8) = (   0.3573371  -0.3498874   0.3053357), wk =   0.0312500
        k(    9) = (   0.3573371  -0.3498874   0.6417117), wk =   0.0625000
        k(   10) = (   0.3573371  -0.3498874  -0.3674163), wk =   0.0312500
        k(   11) = (   0.0000000   0.3498874  -0.3053357), wk =   0.0625000
        k(   12) = (   0.0000000   0.3498874   0.0310403), wk =   0.0625000
        k(   13) = (   0.0000000   0.3498874  -0.9780877), wk =   0.0625000
        k(   14) = (   0.0000000   0.3498874  -0.6417117), wk =   0.0625000
        k(   15) = (   0.5360056  -0.1749437   0.1526678), wk =   0.0625000
        k(   16) = (   0.5360056  -0.1749437   0.4890439), wk =   0.0625000
        k(   17) = (   0.5360056  -0.1749437  -0.5200842), wk =   0.0625000
        k(   18) = (   0.5360056  -0.1749437  -0.1837082), wk =   0.0625000
        k(   19) = (   0.3573371   0.0000000   0.0000000), wk =   0.0625000
        k(   20) = (   0.3573371   0.0000000   0.3363760), wk =   0.0625000
        k(   21) = (   0.3573371   0.0000000  -0.6727520), wk =   0.0625000
        k(   22) = (   0.0000000  -0.6997748   0.6106714), wk =   0.0312500
        k(   23) = (   0.0000000  -0.6997748   0.9470474), wk =   0.0625000
        k(   24) = (   0.0000000  -0.6997748  -0.0620806), wk =   0.0312500
        k(   25) = (  -0.1786685  -0.1749437   0.1526678), wk =   0.0625000
        k(   26) = (  -0.1786685  -0.1749437  -0.1837082), wk =   0.0625000
        k(   27) = (  -0.1786685  -0.1749437   0.8254199), wk =   0.0625000
        k(   28) = (  -0.1786685  -0.1749437   0.4890439), wk =   0.0625000
        k(   29) = (   0.3573371   0.3498874  -0.3053357), wk =   0.0312500
        k(   30) = (   0.3573371   0.3498874  -0.6417117), wk =   0.0625000
        k(   31) = (   0.3573371   0.3498874   0.3674163), wk =   0.0312500
        k(   32) = (   0.5360056   0.1749437  -0.1526678), wk =   0.0625000
        k(   33) = (   0.5360056   0.1749437  -0.4890439), wk =   0.0625000
        k(   34) = (   0.5360056   0.1749437   0.5200842), wk =   0.0625000
        k(   35) = (   0.5360056   0.1749437   0.1837082), wk =   0.0625000
        k(   36) = (   0.3573371   0.0000000  -0.3363760), wk =   0.0625000

     Dense  grid:    35879 G-vectors     FFT dimensions: (  45,  45,  45)

     Smooth grid:    12689 G-vectors     FFT dimensions: (  32,  32,  32)

     Estimated max dynamical RAM per process >      21.20 MB

     Estimated total dynamical RAM >      84.79 MB

     Check: negative core charge=   -0.000005

     Initial potential from superposition of free atoms

     starting charge      29.0985, renormalised to      30.0000
     Starting wfcs are   26 randomized atomic wfcs
     Checking if some PAW data can be deallocated... 

     total cpu time spent up to now is        0.9 secs

     Self-consistent Calculation

     iteration #  1     ecut=    40.00 Ry     beta= 0.70
     Davidson diagonalization with overlap
     ethr =  1.00E-02,  avg # of iterations =  4.6

     total cpu time spent up to now is        2.5 secs

     total energy              =    -146.84819756 Ry
     estimated scf accuracy    <       5.83927354 Ry

     iteration #  2     ecut=    40.00 Ry     beta= 0.70
     Davidson diagonalization with overlap
     ethr =  1.00E-02,  avg # of iterations =  3.5

     total cpu time spent up to now is        3.8 secs

     total energy              =    -148.13801490 Ry
     estimated scf accuracy    <       8.01149811 Ry

     iteration #  3     ecut=    40.00 Ry     beta= 0.70
     Davidson diagonalization with overlap
     ethr =  1.00E-02,  avg # of iterations =  2.7

     total cpu time spent up to now is        4.9 secs

     total energy              =    -149.74210491 Ry
     estimated scf accuracy    <       0.05593963 Ry

     iteration #  4     ecut=    40.00 Ry     beta= 0.70
     Davidson diagonalization with overlap
     ethr =  1.86E-04,  avg # of iterations =  4.9

     total cpu time spent up to now is        6.2 secs

     total energy              =    -149.75929337 Ry
     estimated scf accuracy    <       0.01956818 Ry

     iteration #  5     ecut=    40.00 Ry     beta= 0.70
     Davidson diagonalization with overlap
     ethr =  6.52E-05,  avg # of iterations =  2.2

     total cpu time spent up to now is        7.2 secs

     total energy              =    -149.76315359 Ry
     estimated scf accuracy    <       0.00337464 Ry

     iteration #  6     ecut=    40.00 Ry     beta= 0.70
     Davidson diagonalization with overlap
     ethr =  1.12E-05,  avg # of iterations =  2.2

     total cpu time spent up to now is        8.2 secs

     total energy              =    -149.76395751 Ry
     estimated scf accuracy    <       0.00025804 Ry

     iteration #  7     ecut=    40.00 Ry     beta= 0.70
     Davidson diagonalization with overlap
     ethr =  8.60E-07,  avg # of iterations =  2.6

     total cpu time spent up to now is        9.1 secs

     total energy              =    -149.76397281 Ry
     estimated scf accuracy    <       0.00003230 Ry

     iteration #  8     ecut=    40.00 Ry     beta= 0.70
     Davidson diagonalization with overlap
     ethr =  1.08E-07,  avg # of iterations =  2.0

     total cpu time spent up to now is       10.1 secs

     total energy              =    -149.76398031 Ry
     estimated scf accuracy    <       0.00000034 Ry

     iteration #  9     ecut=    40.00 Ry     beta= 0.70
     Davidson diagonalization with overlap
     ethr =  1.15E-09,  avg # of iterations =  3.7

     total cpu time spent up to now is       11.3 secs

     total energy              =    -149.76398045 Ry
     estimated scf accuracy    <       0.00000017 Ry

     iteration # 10     ecut=    40.00 Ry     beta= 0.70
     Davidson diagonalization with overlap
     ethr =  5.55E-10,  avg # of iterations =  2.0

     total cpu time spent up to now is       12.2 secs

     total energy              =    -149.76398047 Ry
     estimated scf accuracy    <       0.00000002 Ry

     iteration # 11     ecut=    40.00 Ry     beta= 0.70
     Davidson diagonalization with overlap
     ethr =  5.50E-11,  avg # of iterations =  2.7

     total cpu time spent up to now is       13.3 secs

     End of self-consistent calculation

          k = 0.0000 0.0000 0.0000 (  1581 PWs)   bands (ev):

  -124.9405 -95.9690 -68.7721 -42.3034 -41.6979 -29.9213 -25.2515 -16.8115
   -16.6636 -10.1794  -9.2176  -4.8222  -0.9739   2.9648   5.1255   7.7866
     8.5874  10.8307  13.6419

          k = 0.0000 0.0000 0.3364 (  1572 PWs)   bands (ev):

  -124.9410 -95.9683 -68.7692 -42.3011 -41.6926 -29.9180 -25.2437 -16.7802
   -16.6560 -10.1064  -9.2797  -4.9834  -0.9311   2.6769   5.6509   7.9231
     8.4855  10.2210  12.1319

          k = 0.0000 0.0000-0.6728 (  1562 PWs)   bands (ev):

  -124.9396 -95.9704 -68.7627 -42.2960 -41.6883 -29.9149 -25.2314 -16.7438
   -16.6498 -10.0299  -9.3424  -5.1267  -0.8927   2.5639   5.8573   8.0495
     8.1757   9.4167  11.8195

          k =-0.1787 0.1749-0.1527 (  1572 PWs)   bands (ev):

  -124.9394 -95.9675 -68.7670 -42.3003 -41.6933 -29.9194 -25.2357 -16.8056
   -16.6736 -10.1408  -9.2914  -4.8098  -1.1277   2.9397   5.8183   7.5935
     8.7090  10.3642  11.8649

          k =-0.1787 0.1749 0.1837 (  1585 PWs)   bands (ev):

  -124.9414 -95.9695 -68.7676 -42.3023 -41.6973 -29.9201 -25.2366 -16.7967
   -16.6776 -10.1287  -9.2988  -4.8877  -1.1331   2.9271   5.8576   7.6285
     8.7465  10.3431  12.0089

          k =-0.1787 0.1749-0.8254 (  1589 PWs)   bands (ev):

  -124.9411 -95.9731 -68.7705 -42.3051 -41.6960 -29.9198 -25.2297 -16.7660
   -16.6722 -10.0551  -9.3678  -5.0451  -1.0998   2.7229   6.5230   7.4185
     8.5419   9.8796  10.8012

          k =-0.1787 0.1749-0.4890 (  1580 PWs)   bands (ev):

  -124.9407 -95.9700 -68.7681 -42.3035 -41.6924 -29.9201 -25.2289 -16.7746
   -16.6694 -10.0693  -9.3573  -4.9745  -1.0953   2.7239   6.4499   7.3985
     8.6636   9.9137  10.7297

          k = 0.3573-0.3499 0.3053 (  1580 PWs)   bands (ev):

  -124.9411 -95.9696 -68.7729 -42.3034 -41.6929 -29.9202 -25.2287 -16.7967
   -16.6867 -10.1060  -9.3722  -4.8044  -1.2838   2.9248   6.8316   7.3731
     8.4791   9.4859  11.3985

          k = 0.3573-0.3499 0.6417 (  1581 PWs)   bands (ev):

  -124.9400 -95.9706 -68.7674 -42.3022 -41.6940 -29.9195 -25.2221 -16.7848
   -16.6899 -10.0953  -9.3692  -4.8750  -1.2802   2.9560   6.6511   7.8114
     8.4847   9.2572  10.8681

          k = 0.3573-0.3499-0.3674 (  1590 PWs)   bands (ev):

  -124.9420 -95.9714 -68.7731 -42.3024 -41.6984 -29.9191 -25.2287 -16.7788
   -16.6873 -10.0733  -9.3890  -4.9493  -1.2785   2.9213   6.8039   7.6422
     8.4461   9.5500  11.1455

          k = 0.0000 0.3499-0.3053 (  1589 PWs)   bands (ev):

  -124.9432 -95.9687 -68.7799 -42.3063 -41.6938 -29.9194 -25.2322 -16.7538
   -16.6749 -10.1641  -9.3317  -5.0217  -1.1333   2.7895   6.3994   7.8221
     8.6129   9.7769  11.4551

          k = 0.0000 0.3499 0.0310 (  1582 PWs)   bands (ev):

  -124.9430 -95.9688 -68.7716 -42.3026 -41.6919 -29.9232 -25.2356 -16.7742
   -16.6764 -10.1442  -9.2847  -4.8319  -1.1247   2.8776   5.8306   7.5717
     8.8347  10.0458  12.1023

          k = 0.0000 0.3499-0.9781 (  1587 PWs)   bands (ev):

  -124.9440 -95.9712 -68.7766 -42.3024 -41.6936 -29.9237 -25.2388 -16.7585
   -16.6715 -10.0667  -9.3166  -4.8891  -1.0879   2.6665   6.3094   7.1588
     8.8055   9.7186  11.1841

          k = 0.0000 0.3499-0.6417 (  1589 PWs)   bands (ev):

  -124.9422 -95.9725 -68.7749 -42.3046 -41.6978 -29.9193 -25.2283 -16.7341
   -16.6732 -10.0905  -9.3629  -5.0643  -1.0998   2.6964   6.4667   7.7273
     8.2401   9.7931  10.4329

          k = 0.5360-0.1749 0.1527 (  1587 PWs)   bands (ev):

  -124.9424 -95.9703 -68.7767 -42.3042 -41.6968 -29.9203 -25.2269 -16.7566
   -16.6908 -10.1251  -9.3718  -4.9024  -1.2816   2.8922   6.6294   7.4687
     8.8789   9.6677  11.1754

          k = 0.5360-0.1749 0.4890 (  1588 PWs)   bands (ev):

  -124.9440 -95.9712 -68.7748 -42.3044 -41.6931 -29.9231 -25.2261 -16.7636
   -16.6897 -10.1099  -9.3621  -4.8223  -1.2792   2.8621   6.5082   7.8602
     8.5234   9.3764  11.1982

          k = 0.5360-0.1749-0.5201 (  1592 PWs)   bands (ev):

  -124.9442 -95.9713 -68.7784 -42.3059 -41.6930 -29.9238 -25.2260 -16.7533
   -16.6893 -10.0906  -9.3703  -4.9031  -1.2708   2.8608   6.6371   7.5770
     8.8754   9.6602  10.8611

          k = 0.5360-0.1749-0.1837 (  1595 PWs)   bands (ev):

  -124.9436 -95.9714 -68.7771 -42.3050 -41.6993 -29.9202 -25.2252 -16.7474
   -16.6918 -10.1114  -9.3800  -4.9712  -1.2762   2.8921   6.5301   7.9156
     8.6022   9.4278  11.0988

          k = 0.3573 0.0000 0.0000 (  1589 PWs)   bands (ev):

  -124.9418 -95.9692 -68.7769 -42.3066 -41.6985 -29.9219 -25.2356 -16.7664
   -16.6766 -10.1638  -9.2960  -4.9076  -1.1300   2.9085   5.8973   7.4678
     8.8515  10.0359  12.3485

          k = 0.3573 0.0000 0.3364 (  1592 PWs)   bands (ev):

  -124.9449 -95.9720 -68.7776 -42.3060 -41.6949 -29.9265 -25.2394 -16.7694
   -16.6720 -10.0826  -9.3159  -4.8192  -1.0975   2.6665   6.2780   7.1407
     8.8113   9.6790  11.1575

          k = 0.3573 0.0000-0.6728 (  1584 PWs)   bands (ev):

  -124.9421 -95.9707 -68.7706 -42.3055 -41.6934 -29.9222 -25.2281 -16.7407
   -16.6709 -10.0709  -9.3541  -4.9925  -1.0947   2.6720   6.4604   7.7439
     8.2422   9.7782  10.3447

          k = 0.0000-0.6998 0.6107 (  1600 PWs)   bands (ev):

  -124.9437 -95.9717 -68.7776 -42.3100 -41.6977 -29.9219 -25.2197 -16.7181
   -16.6943 -10.1457  -9.3781  -4.9911  -1.2665   2.8544   6.2570   8.0804
     8.6863  10.1775  10.7089

          k = 0.0000-0.6998 0.9470 (  1589 PWs)   bands (ev):

  -124.9429 -95.9694 -68.7791 -42.3049 -41.6952 -29.9223 -25.2248 -16.7226
   -16.6908 -10.1226  -9.3660  -4.9303  -1.2690   2.8051   6.6561   7.5708
     8.7069   9.8023  11.5116

          k = 0.0000-0.6998-0.0621 (  1606 PWs)   bands (ev):

  -124.9474 -95.9725 -68.7790 -42.3085 -41.6959 -29.9272 -25.2281 -16.7331
   -16.6945 -10.1118  -9.3607  -4.8476  -1.2715   2.7865   6.2741   8.0031
     8.7022  10.0282  10.6192

          k =-0.1787-0.1749 0.1527 (  1572 PWs)   bands (ev):

  -124.9417 -95.9660 -68.7728 -42.3015 -41.6904 -29.9170 -25.2412 -16.7568
   -16.6613 -10.1945  -9.2531  -5.0230  -0.9652   2.8075   5.6916   8.0149
     8.5928   9.5337  12.9252

          k =-0.1787-0.1749-0.1837 (  1585 PWs)   bands (ev):

  -124.9434 -95.9698 -68.7783 -42.3039 -41.6939 -29.9251 -25.2505 -16.7773
   -16.6594 -10.1198  -9.2336  -4.8249  -0.9312   2.6669   5.5111   7.5456
     8.7070   9.6515  11.8717

          k =-0.1787-0.1749 0.8254 (  1589 PWs)   bands (ev):

  -124.9441 -95.9720 -68.7758 -42.3046 -41.6947 -29.9244 -25.2441 -16.7460
   -16.6554 -10.0493  -9.3013  -4.9833  -0.8978   2.4849   5.8859   7.6647
     8.2520   9.4391  10.5512

          k =-0.1787-0.1749 0.4890 (  1580 PWs)   bands (ev):

  -124.9424 -95.9690 -68.7755 -42.3043 -41.6921 -29.9167 -25.2345 -16.7275
   -16.6565 -10.1264  -9.3188  -5.1770  -0.9367   2.5962   6.2701   7.9895
     8.1569   9.4251  10.9120

          k = 0.3573 0.3499-0.3053 (  1580 PWs)   bands (ev):

  -124.9442 -95.9689 -68.7776 -42.3035 -41.6933 -29.9134 -25.2370 -16.7055
   -16.6633 -10.2157  -9.2929  -5.2259  -0.9801   2.6421   6.8841   7.5752
     8.2252   8.8890  12.4792

          k = 0.3573 0.3499-0.6417 (  1581 PWs)   bands (ev):

  -124.9430 -95.9685 -68.7775 -42.3055 -41.6928 -29.9221 -25.2400 -16.7193
   -16.6588 -10.1431  -9.2736  -5.0243  -0.9277   2.6149   6.0296   7.7485
     8.1008   9.1928  10.9866

          k = 0.3573 0.3499 0.3674 (  1590 PWs)   bands (ev):

  -124.9462 -95.9718 -68.7838 -42.3037 -41.6943 -29.9288 -25.2546 -16.7399
   -16.6557 -10.0613  -9.2523  -4.8255  -0.8902   2.4038   6.0076   7.3246
     8.2699   9.1174  10.7342

          k = 0.5360 0.1749-0.1527 (  1587 PWs)   bands (ev):

  -124.9441 -95.9688 -68.7808 -42.3071 -41.6941 -29.9173 -25.2312 -16.7100
   -16.6753 -10.1817  -9.3346  -5.1102  -1.1312   2.7628   6.5651   7.7958
     8.5180   9.2510  11.7132

          k = 0.5360 0.1749-0.4890 (  1588 PWs)   bands (ev):

  -124.9449 -95.9700 -68.7791 -42.3061 -41.6933 -29.9195 -25.2330 -16.7168
   -16.6765 -10.1650  -9.3249  -5.0405  -1.1271   2.7414   6.5164   7.8881
     8.5073   9.1845  11.6053

          k = 0.5360 0.1749 0.5201 (  1592 PWs)   bands (ev):

  -124.9442 -95.9720 -68.7787 -42.3049 -41.6943 -29.9278 -25.2384 -16.7372
   -16.6748 -10.0853  -9.3075  -4.8375  -1.0900   2.6126   6.2229   7.3560
     8.6666   9.4806  10.9097

          k = 0.5360 0.1749 0.1837 (  1595 PWs)   bands (ev):

  -124.9450 -95.9718 -68.7831 -42.3076 -41.6940 -29.9259 -25.2386 -16.7284
   -16.6738 -10.1047  -9.3144  -4.9138  -1.0829   2.6465   6.3225   7.2187
     8.6322   9.5267  10.8922

          k = 0.3573 0.0000-0.3364 (  1592 PWs)   bands (ev):

  -124.9441 -95.9706 -68.7789 -42.3067 -41.6943 -29.9188 -25.2325 -16.7417
   -16.6752 -10.1499  -9.3383  -5.0879  -1.1330   2.7917   6.5153   7.7986
     8.5707   9.7352  11.4495

     the Fermi energy is     6.9802 ev

!    total energy              =    -149.76398048 Ry
     estimated scf accuracy    <          8.3E-10 Ry
     smearing contrib. (-TS)   =      -0.00173612 Ry
     internal energy E=F+TS    =    -149.76224436 Ry

     The total energy is F=E-TS. E is the sum of the following terms:
     one-electron contribution =    -436.01432744 Ry
     hartree contribution      =     211.46377022 Ry
     xc contribution           =     -46.22508860 Ry
     ewald contribution        =     158.62986287 Ry
     one-center paw contrib.   =     -37.61646142 Ry

     convergence has been achieved in  11 iterations

     Forces acting on atoms (cartesian axes, Ry/au):

     atom    1 type  1   force =    -6.63730816    1.98665983   17.54842538
     atom    2 type  1   force =     1.99140376   -6.62887755   17.55888209
     atom    3 type  2   force =   -34.58653999    9.51435901  -17.36860959
     atom    4 type  2   force =     9.50527829  -34.58923644  -17.37140233
     atom    5 type  2   force =    32.27262036   32.26022879   -8.12963252
     atom    6 type  2   force =    -2.54545427   -2.54313364    7.76233696

     Total force =    78.170695     Total SCF correction =     0.000175


     Computing stress (Cartesian axis) and pressure

          total   stress  (Ry/bohr**3)                   (kbar)     P=    18415.46
   0.12506383  -0.02447998  -0.02307531        18397.52    -3601.13    -3394.50
  -0.02447998   0.12510037  -0.02306399        -3601.13    18402.90    -3392.83
  -0.02307531  -0.02306399   0.12539297        -3394.50    -3392.83    18445.94


     BFGS Geometry Optimization
     Energy error            =      1.2E+04 Ry
     Gradient error          =      3.5E+01 Ry/Bohr
     Cell gradient error     =      1.8E+04 kbar

     number of scf cycles    =   1
     number of bfgs steps    =   0

     enthalpy           new  =    -149.7639804783 Ry

     new trust radius        =       0.5000000000 bohr
     new conv_thr            =       0.0000000100 Ry

     new unit-cell volume =    409.89349 a.u.^3 (    60.73995 Ang^3 )
     density =      0.16403 g/cm^3

CELL_PARAMETERS (angstrom)
   3.016531729   3.081622480  -0.036937839
  -3.056140678   3.120405675  -0.000380027
  -0.037394889   2.795448412   3.208883436

ATOMIC_POSITIONS (angstrom)
Li               0.2122256690        0.7801715938        0.6144151549
Li               0.7801895807        0.2122788073        0.6144747307
O                0.0078742258        0.8734875931       -0.1078309938
O                0.8734261905        0.0078585748       -0.1078495972
O                1.0015185241        1.0014544207       -0.0521969853
O                0.1936978945        0.1937167613        1.0692918128



     Writing config-only to output data dir ./tmp/pwscf.save/ :
     XML data file
     NEW-OLD atomic charge density approx. for the potential
     New effective cutoffs (rho, wfc):  306.54   38.33

     Check: negative core charge=   -0.000003

     total cpu time spent up to now is       14.3 secs

     Self-consistent Calculation

     iteration #  1     ecut=    40.00 Ry     beta= 0.70
     Davidson diagonalization with overlap
     c_bands:  1 eigenvalues not converged
     c_bands:  1 eigenvalues not converged
     c_bands:  1 eigenvalues not converged
     c_bands:  1 eigenvalues not converged
     c_bands:  1 eigenvalues not converged
     c_bands:  1 eigenvalues not converged
     c_bands:  1 eigenvalues not converged
     c_bands:  1 eigenvalues not converged
     c_bands:  1 eigenvalues not converged
     c_bands:  2 eigenvalues not converged
     c_bands:  1 eigenvalues not converged
     c_bands:  1 eigenvalues not converged
     c_bands:  1 eigenvalues not converged
     c_bands:  1 eigenvalues not converged
     c_bands:  1 eigenvalues not converged
     c_bands:  1 eigenvalues not converged
     c_bands:  1 eigenvalues not converged
     c_bands:  1 eigenvalues not converged
     c_bands:  1 eigenvalues not converged
     c_bands:  1 eigenvalues not converged
     c_bands:  1 eigenvalues not converged
     c_bands:  2 eigenvalues not converged
     ethr =  1.00E-06,  avg # of iterations = 19.0

     total cpu time spent up to now is       19.0 secs

     total energy              =    -180.79879605 Ry
     estimated scf accuracy    <       2.46670144 Ry

     iteration #  2     ecut=    40.00 Ry     beta= 0.70
     Davidson diagonalization with overlap
     ethr =  8.22E-03,  avg # of iterations =  2.4

     total cpu time spent up to now is       20.1 secs

     total energy              =    -181.33822303 Ry
     estimated scf accuracy    <       0.62628088 Ry

     iteration #  3     ecut=    40.00 Ry     beta= 0.70
     Davidson diagonalization with overlap
     ethr =  2.09E-03,  avg # of iterations =  2.0

     total cpu time spent up to now is       21.1 secs

     total energy              =    -181.47378610 Ry
     estimated scf accuracy    <       0.08529479 Ry

     iteration #  4     ecut=    40.00 Ry     beta= 0.70
     Davidson diagonalization with overlap
     ethr =  2.84E-04,  avg # of iterations =  2.3

     total cpu time spent up to now is       22.2 secs

     total energy              =    -181.49624479 Ry
     estimated scf accuracy    <       0.01297100 Ry

     iteration #  5     ecut=    40.00 Ry     beta= 0.70
     Davidson diagonalization with overlap
     ethr =  4.32E-05,  avg # of iterations =  3.4

     total cpu time spent up to now is       23.2 secs

     total energy              =    -181.49909368 Ry
     estimated scf accuracy    <       0.00052020 Ry

     iteration #  6     ecut=    40.00 Ry     beta= 0.70
     Davidson diagonalization with overlap
     ethr =  1.73E-06,  avg # of iterations =  5.9

     total cpu time spent up to now is       24.5 secs

     total energy              =    -181.49927373 Ry
     estimated scf accuracy    <       0.00009633 Ry

     iteration #  7     ecut=    40.00 Ry     beta= 0.70
     Davidson diagonalization with overlap
     ethr =  3.21E-07,  avg # of iterations =  3.0

     total cpu time spent up to now is       25.6 secs

     total energy              =    -181.49930277 Ry
     estimated scf accuracy    <       0.00000847 Ry

     iteration #  8     ecut=    40.00 Ry     beta= 0.70
     Davidson diagonalization with overlap
     ethr =  2.82E-08,  avg # of iterations =  2.2

     total cpu time spent up to now is       26.7 secs

     total energy              =    -181.49930519 Ry
     estimated scf accuracy    <       0.00000045 Ry

     iteration #  9     ecut=    40.00 Ry     beta= 0.70
     Davidson diagonalization with overlap
     ethr =  1.49E-09,  avg # of iterations =  3.3

     total cpu time spent up to now is       27.8 secs

     total energy              =    -181.49930534 Ry
     estimated scf accuracy    <       0.00000012 Ry

     iteration # 10     ecut=    40.00 Ry     beta= 0.70
     Davidson diagonalization with overlap
     ethr =  4.05E-10,  avg # of iterations =  2.0

     total cpu time spent up to now is       28.8 secs

     total energy              =    -181.49930537 Ry
     estimated scf accuracy    <       0.00000002 Ry

     iteration # 11     ecut=    40.00 Ry     beta= 0.70
     Davidson diagonalization with overlap
     ethr =  6.02E-11,  avg # of iterations =  3.6

     total cpu time spent up to now is       29.9 secs

     End of self-consistent calculation

          k = 0.0000 0.0000 0.0000 (  1581 PWs)   bands (ev):

   -82.8410 -65.1604 -42.0278 -22.8346 -21.6195 -18.4922 -13.0370  -9.1541
    -9.1036  -6.2306  -5.8722  -2.2477   2.2812   2.7867   5.8068   6.7484
     8.9042  12.3249  12.7473

          k = 0.0020 0.0020 0.3254 (  1572 PWs)   bands (ev):

   -82.8410 -65.1599 -42.0290 -22.8294 -21.6285 -18.4720 -12.9420  -9.2092
    -9.0921  -6.1910  -5.9697  -2.4130   2.4168   2.5793   5.9137   7.5510
     8.4497  11.5992  11.8478

          k =-0.0039-0.0039-0.6508 (  1562 PWs)   bands (ev):

   -82.8408 -65.1591 -42.0290 -22.8232 -21.6377 -18.4533 -12.8399  -9.2639
    -9.0791  -6.3037  -5.9031  -2.5690   2.4700   2.5574   6.0184   7.5441
     8.7718  10.3383  11.4137

          k =-0.1727 0.1672-0.1477 (  1572 PWs)   bands (ev):

   -82.8409 -65.1596 -42.0274 -22.8396 -21.6211 -18.4840 -12.9232  -9.2038
    -9.1382  -6.1647  -5.9074  -2.3780   2.0175   2.7906   5.5235   7.4042
     8.9780  11.2655  13.0211

          k =-0.1707 0.1692 0.1777 (  1585 PWs)   bands (ev):

   -82.8409 -65.1600 -42.0287 -22.8395 -21.6240 -18.4735 -12.9031  -9.2065
    -9.1521  -6.1620  -5.9520  -2.3878   2.0176   2.7926   5.5101   7.4814
     9.0414  11.4562  12.6266

          k =-0.1766 0.1633-0.7985 (  1589 PWs)   bands (ev):

   -82.8411 -65.1602 -42.0299 -22.8356 -21.6342 -18.4544 -12.8036  -9.2506
    -9.1551  -6.2290  -5.9447  -2.5493   2.1207   2.6429   5.6304   8.0806
     8.8863  10.5518  11.2023

          k =-0.1746 0.1653-0.4731 (  1580 PWs)   bands (ev):

   -82.8410 -65.1600 -42.0290 -22.8361 -21.6312 -18.4649 -12.8262  -9.2374
    -9.1510  -6.1648  -5.9616  -2.5495   2.1140   2.6387   5.6495   8.0115
     8.7559  10.6593  11.3146

          k = 0.3453-0.3345 0.2954 (  1580 PWs)   bands (ev):

   -82.8411 -65.1601 -42.0284 -22.8467 -21.6235 -18.4767 -12.8058  -9.2743
    -9.1595  -6.0933  -5.9523  -2.5109   1.7723   2.7991   5.2968   8.3093
     8.7808  10.4857  12.4618

          k = 0.3473-0.3325 0.6208 (  1581 PWs)   bands (ev):

   -82.8409 -65.1598 -42.0282 -22.8455 -21.6260 -18.4659 -12.7847  -9.2697
    -9.1757  -6.1015  -5.9765  -2.5272   1.7818   2.8254   5.3032   7.8452
     9.6484  10.5916  11.3234

          k = 0.3414-0.3384-0.3554 (  1590 PWs)   bands (ev):

   -82.8410 -65.1598 -42.0298 -22.8449 -21.6288 -18.4545 -12.7617  -9.2737
    -9.1919  -6.1562  -5.9773  -2.5179   1.7782   2.8148   5.2583   8.4565
     9.0528  10.4284  11.9435

          k = 0.0004 0.3367-0.2933 (  1589 PWs)   bands (ev):

   -82.8413 -65.1600 -42.0292 -22.8360 -21.6387 -18.4558 -12.8158  -9.2124
    -9.1282  -6.2698  -6.0497  -2.4878   2.0195   2.7221   5.6702   8.2529
     8.6589  10.5799  11.4980

          k = 0.0024 0.3387 0.0321 (  1582 PWs)   bands (ev):

   -82.8411 -65.1596 -42.0282 -22.8403 -21.6387 -18.4840 -12.8847  -9.1965
    -9.0955  -6.1539  -5.9402  -2.3625   2.0277   2.7390   5.4767   7.3425
     9.1353  11.5071  12.3286

          k =-0.0036 0.3328-0.9441 (  1587 PWs)   bands (ev):

   -82.8412 -65.1596 -42.0291 -22.8393 -21.6469 -18.4798 -12.8394  -9.1915
    -9.1163  -6.0659  -5.9596  -2.4235   2.0745   2.6194   5.4617   7.8188
     8.8961  10.9862  11.6026

          k =-0.0016 0.3347-0.6187 (  1589 PWs)   bands (ev):

   -82.8411 -65.1599 -42.0298 -22.8354 -21.6468 -18.4514 -12.7679  -9.2157
    -9.1375  -6.2604  -5.9893  -2.5407   2.1386   2.6172   5.5590   8.0013
     9.3990   9.8776  10.8994

          k = 0.5184-0.1650 0.1498 (  1587 PWs)   bands (ev):

   -82.8413 -65.1600 -42.0290 -22.8456 -21.6395 -18.4632 -12.7496  -9.2770
    -9.1212  -6.1472  -6.0114  -2.5201   1.7930   2.7775   5.2646   8.0861
     9.5147  10.4796  11.3749

          k = 0.5203-0.1631 0.4752 (  1588 PWs)   bands (ev):

   -82.8412 -65.1601 -42.0286 -22.8465 -21.6407 -18.4769 -12.7674  -9.2778
    -9.1062  -6.0930  -5.9717  -2.4894   1.7714   2.7549   5.2482   8.1549
     9.3213  10.2482  11.8837

          k = 0.5144-0.1690-0.5010 (  1592 PWs)   bands (ev):

   -82.8412 -65.1599 -42.0293 -22.8464 -21.6428 -18.4663 -12.7455  -9.2739
    -9.1268  -6.1116  -5.9893  -2.5157   1.7858   2.7555   5.2840   8.0985
     9.6837  10.5563  11.0400

          k = 0.5164-0.1670-0.1756 (  1595 PWs)   bands (ev):

   -82.8412 -65.1599 -42.0299 -22.8451 -21.6422 -18.4523 -12.7269  -9.2796
    -9.1344  -6.1933  -6.0164  -2.5040   1.7885   2.7908   5.1899   8.3018
     9.5535  10.2719  11.4552

          k = 0.3457 0.0022 0.0021 (  1589 PWs)   bands (ev):

   -82.8412 -65.1602 -42.0287 -22.8402 -21.6379 -18.4702 -12.8694  -9.2017
    -9.1056  -6.2006  -5.9920  -2.3806   2.0413   2.7650   5.4444   7.3869
     9.1703  11.4219  12.1825

          k = 0.3477 0.0042 0.3275 (  1592 PWs)   bands (ev):

   -82.8414 -65.1600 -42.0291 -22.8415 -21.6449 -18.4915 -12.8627  -9.1939
    -9.1013  -6.0375  -5.9493  -2.4178   2.0732   2.6047   5.4739   7.7577
     8.8197  10.7671  11.7657

          k = 0.3418-0.0017-0.6487 (  1584 PWs)   bands (ev):

   -82.8413 -65.1601 -42.0297 -22.8364 -21.6483 -18.4649 -12.7861  -9.2088
    -9.1311  -6.1825  -5.9639  -2.5341   2.1344   2.5777   5.6215   7.9029
     9.3288  10.0082  10.8086

          k =-0.0008-0.6734 0.5866 (  1600 PWs)   bands (ev):

   -82.8414 -65.1603 -42.0300 -22.8463 -21.6561 -18.4495 -12.6932  -9.2860
    -9.0750  -6.2080  -6.0750  -2.5008   1.8333   2.7468   5.1102   8.2961
     9.8667  10.1887  11.2391

          k = 0.0012-0.6714 0.9120 (  1589 PWs)   bands (ev):

   -82.8412 -65.1598 -42.0290 -22.8458 -21.6560 -18.4634 -12.7111  -9.2821
    -9.0644  -6.1383  -6.0411  -2.4962   1.7578   2.7414   5.2577   8.3665
     9.7549  10.2205  10.7018

          k =-0.0047-0.6774-0.0642 (  1606 PWs)   bands (ev):

   -82.8413 -65.1603 -42.0291 -22.8479 -21.6581 -18.4774 -12.7302  -9.2823
    -9.0525  -6.0775  -6.0039  -2.4815   1.8100   2.6787   5.1854   8.1401
     9.8320  10.0311  11.5478

          k =-0.1730-0.1695 0.1456 (  1572 PWs)   bands (ev):

   -82.8411 -65.1596 -42.0288 -22.8286 -21.6366 -18.4626 -12.9299  -9.1365
    -9.1098  -6.3076  -6.0401  -2.3521   2.3041   2.6967   5.9569   7.2615
     8.7315  10.8295  12.5467

          k =-0.1750-0.1714-0.1798 (  1585 PWs)   bands (ev):

   -82.8413 -65.1600 -42.0285 -22.8345 -21.6424 -18.4983 -12.9746  -9.1122
    -9.0960  -6.1076  -5.9120  -2.2851   2.4025   2.5420   5.7550   7.0050
     8.8109  11.4915  12.1235

          k =-0.1691-0.1655 0.7964 (  1589 PWs)   bands (ev):

   -82.8414 -65.1601 -42.0301 -22.8306 -21.6527 -18.4793 -12.8796  -9.1659
    -9.0864  -6.1400  -5.9294  -2.4525   2.3704   2.5423   5.8593   7.4470
     8.7673  10.2473  11.6321

          k =-0.1711-0.1675 0.4710 (  1580 PWs)   bands (ev):

   -82.8412 -65.1599 -42.0301 -22.8249 -21.6464 -18.4439 -12.8296  -9.1971
    -9.1003  -6.3761  -6.0317  -2.5139   2.4351   2.5563   6.0631   7.9486
     8.7097   9.5159  11.9171

          k = 0.3461 0.3389-0.2912 (  1580 PWs)   bands (ev):

   -82.8413 -65.1596 -42.0304 -22.8247 -21.6532 -18.4341 -12.8173  -9.1273
    -9.1134  -6.4383  -6.1605  -2.4550   2.3204   2.6137   6.1038   8.1354
     8.7139   9.2466  12.6213

          k = 0.3441 0.3370-0.6166 (  1581 PWs)   bands (ev):

   -82.8413 -65.1598 -42.0291 -22.8296 -21.6596 -18.4694 -12.8671  -9.1054
    -9.0907  -6.2150  -6.0495  -2.3920   2.4220   2.5175   5.9096   7.2280
     8.8785  10.0316  12.2355

          k = 0.3500 0.3429 0.3596 (  1590 PWs)   bands (ev):

   -82.8414 -65.1600 -42.0295 -22.8354 -21.6654 -18.5048 -12.9145  -9.0906
    -9.0657  -5.9850  -5.9408  -2.3240   2.2700   2.5317   5.6921   7.4310
     8.7199  10.2219  11.5825

          k = 0.5187 0.1717-0.1435 (  1587 PWs)   bands (ev):

   -82.8413 -65.1600 -42.0301 -22.8350 -21.6539 -18.4420 -12.7560  -9.2107
    -9.0888  -6.3247  -6.1175  -2.4779   2.0472   2.6936   5.5832   8.1672
     9.1393   9.9239  11.6624

          k = 0.5168 0.1697-0.4689 (  1588 PWs)   bands (ev):

   -82.8413 -65.1601 -42.0297 -22.8357 -21.6552 -18.4558 -12.7752  -9.2067
    -9.0799  -6.2558  -6.0839  -2.4708   2.0285   2.6717   5.6428   8.0421
     9.1033  10.0530  11.5936

          k = 0.5227 0.1756 0.5073 (  1592 PWs)   bands (ev):

   -82.8414 -65.1597 -42.0289 -22.8414 -21.6614 -18.4913 -12.8244  -9.1898
    -9.0526  -6.0321  -5.9710  -2.4014   2.0867   2.5519   5.4298   7.6832
     9.0849  10.6690  11.4244

          k = 0.5207 0.1737 0.1819 (  1595 PWs)   bands (ev):

   -82.8414 -65.1601 -42.0295 -22.8403 -21.6606 -18.4770 -12.8064  -9.1933
    -9.0618  -6.0988  -6.0070  -2.4167   2.0912   2.5939   5.4015   7.7086
     9.1266  10.7386  11.2780

          k = 0.3437 0.0002-0.3233 (  1592 PWs)   bands (ev):

   -82.8414 -65.1600 -42.0304 -22.8351 -21.6416 -18.4452 -12.7921  -9.2140
    -9.1420  -6.3116  -6.0529  -2.4854   2.0292   2.7165   5.6565   8.3624
     8.7765  10.3776  11.5173

     the Fermi energy is     6.4751 ev

!    total energy              =    -181.49930537 Ry
     estimated scf accuracy    <          2.9E-09 Ry
     smearing contrib. (-TS)   =      -0.00016831 Ry
     internal energy E=F+TS    =    -181.49913706 Ry

     The total energy is F=E-TS. E is the sum of the following terms:
     one-electron contribution =    -284.02880816 Ry
     hartree contribution      =     146.85876550 Ry
     xc contribution           =     -41.06860636 Ry
     ewald contribution        =      34.76409809 Ry
     one-center paw contrib.   =     -38.02458613 Ry

     convergence has been achieved in  11 iterations

     Forces acting on atoms (cartesian axes, Ry/au):

     atom    1 type  1   force =    -1.46477728    3.17318614    2.23676227
     atom    2 type  1   force =     3.18294033   -1.46309743    2.23366978
     atom    3 type  2   force =    -4.59125130    2.99670146   -4.96867247
     atom    4 type  2   force =     2.99465210   -4.58881199   -4.96827369
     atom    5 type  2   force =     3.07831666    3.07756136   -1.55659687
     atom    6 type  2   force =    -3.19988052   -3.19553953    7.02311097

     Total force =    15.332333     Total SCF correction =     0.000287


     Computing stress (Cartesian axis) and pressure

          total   stress  (Ry/bohr**3)                   (kbar)     P=     5718.32
   0.03247993  -0.00916759  -0.01015373         4777.96    -1348.60    -1493.67
  -0.00916759   0.03245641  -0.01013538        -1348.60     4774.50    -1490.97
  -0.01015373  -0.01013538   0.05168080        -1493.67    -1490.97     7602.51

     Energy error            =      3.2E+01 Ry
     Gradient error          =      7.0E+00 Ry/Bohr
     Cell gradient error     =      7.6E+03 kbar

     number of scf cycles    =   2
     number of bfgs steps    =   1

     enthalpy           old  =    -149.7639804783 Ry
     enthalpy           new  =    -181.4993053722 Ry

     CASE: enthalpy          _new < enthalpy          _old

     new trust radius        =       0.8000000000 bohr
     new conv_thr            =       0.0000000100 Ry

     new unit-cell volume =    483.12831 a.u.^3 (    71.59223 Ang^3 )
     density =      0.13917 g/cm^3

CELL_PARAMETERS (angstrom)
   3.091446973   3.159855897  -0.146764121
  -3.224232956   3.289876167  -0.001400488
  -0.138390942   2.849307418   3.452980085

ATOMIC_POSITIONS (angstrom)
Li               0.1616934352        0.9736695642        0.6306728751
Li               0.9742890765        0.1617789427        0.6303896713
O                0.0227029202        1.0157389272       -0.2931683990
O                1.0157093982        0.0228426221       -0.2931822842
O                0.9339780326        0.9339003526       -0.1145921911
O                0.0004376259        0.0007670074        1.5478959971



     Writing config-only to output data dir ./tmp/pwscf.save/ :
     XML data file
     NEW-OLD atomic charge density approx. for the potential
     New effective cutoffs (rho, wfc):  295.45   36.99

     Check: negative core charge=   -0.000007

     negative rho (up, down):  8.285E-04 0.000E+00

     total cpu time spent up to now is       30.8 secs

     Self-consistent Calculation

     iteration #  1     ecut=    40.00 Ry     beta= 0.70
     Davidson diagonalization with overlap
     c_bands:  2 eigenvalues not converged
     c_bands:  1 eigenvalues not converged
     c_bands:  1 eigenvalues not converged
     c_bands:  1 eigenvalues not converged
     c_bands:  1 eigenvalues not converged
     c_bands:  1 eigenvalues not converged
     c_bands:  1 eigenvalues not converged
     c_bands:  1 eigenvalues not converged
     c_bands:  1 eigenvalues not converged
     c_bands:  1 eigenvalues not converged
     ethr =  1.00E-06,  avg # of iterations = 17.7

     total cpu time spent up to now is       35.4 secs

     total energy              =    -188.93348005 Ry
     estimated scf accuracy    <       0.91720336 Ry

     iteration #  2     ecut=    40.00 Ry     beta= 0.70
     Davidson diagonalization with overlap
     ethr =  3.06E-03,  avg # of iterations =  3.0

     total cpu time spent up to now is       36.5 secs

     total energy              =    -188.73697260 Ry
     estimated scf accuracy    <       6.11516692 Ry

     iteration #  3     ecut=    40.00 Ry     beta= 0.70
     Davidson diagonalization with overlap
     ethr =  3.06E-03,  avg # of iterations =  2.0

     total cpu time spent up to now is       37.5 secs

     total energy              =    -189.46559711 Ry
     estimated scf accuracy    <       0.08228981 Ry

     iteration #  4     ecut=    40.00 Ry     beta= 0.70
     Davidson diagonalization with overlap
     ethr =  2.74E-04,  avg # of iterations =  2.0

     total cpu time spent up to now is       38.5 secs

     total energy              =    -189.47795328 Ry
     estimated scf accuracy    <       0.01498734 Ry

     iteration #  5     ecut=    40.00 Ry     beta= 0.70
     Davidson diagonalization with overlap
     ethr =  5.00E-05,  avg # of iterations =  2.0

     total cpu time spent up to now is       39.5 secs

     total energy              =    -189.47376203 Ry
     estimated scf accuracy    <       0.04675537 Ry

     iteration #  6     ecut=    40.00 Ry     beta= 0.70
     Davidson diagonalization with overlap
     ethr =  5.00E-05,  avg # of iterations =  2.0

     total cpu time spent up to now is       40.5 secs

     total energy              =    -189.48033165 Ry
     estimated scf accuracy    <       0.01821008 Ry

     iteration #  7     ecut=    40.00 Ry     beta= 0.70
     Davidson diagonalization with overlap
     ethr =  5.00E-05,  avg # of iterations =  1.0

     total cpu time spent up to now is       41.3 secs

     total energy              =    -189.48250916 Ry
     estimated scf accuracy    <       0.00089114 Ry

     iteration #  8     ecut=    40.00 Ry     beta= 0.70
     Davidson diagonalization with overlap
     ethr =  2.97E-06,  avg # of iterations =  2.5

     total cpu time spent up to now is       42.2 secs

     total energy              =    -189.48260723 Ry
     estimated scf accuracy    <       0.00003165 Ry

     iteration #  9     ecut=    40.00 Ry     beta= 0.70
     Davidson diagonalization with overlap
     ethr =  1.05E-07,  avg # of iterations =  3.0

     total cpu time spent up to now is       43.3 secs

     total energy              =    -189.48261980 Ry
     estimated scf accuracy    <       0.00000277 Ry

     iteration # 10     ecut=    40.00 Ry     beta= 0.70
     Davidson diagonalization with overlap
     ethr =  9.25E-09,  avg # of iterations =  2.3

     total cpu time spent up to now is       44.3 secs

     total energy              =    -189.48262055 Ry
     estimated scf accuracy    <       0.00000026 Ry

     iteration # 11     ecut=    40.00 Ry     beta= 0.70
     Davidson diagonalization with overlap
     ethr =  8.66E-10,  avg # of iterations =  2.9

     total cpu time spent up to now is       45.4 secs

     total energy              =    -189.48262063 Ry
     estimated scf accuracy    <       0.00000001 Ry

     iteration # 12     ecut=    40.00 Ry     beta= 0.70
     Davidson diagonalization with overlap
     ethr =  3.62E-11,  avg # of iterations =  4.0

     total cpu time spent up to now is       46.7 secs

     End of self-consistent calculation

          k = 0.0000 0.0000 0.0000 (  1581 PWs)   bands (ev):

   -57.8558 -50.9901 -39.4491 -26.6270 -17.8283 -15.5648 -13.1462 -10.0855
    -9.3518  -4.7353  -1.1630  -0.8016  -0.1775   0.7050   0.8124   1.6319
     5.7086  11.4593  11.9145

          k = 0.0070 0.0070 0.2985 (  1572 PWs)   bands (ev):

   -57.8559 -50.9894 -39.4510 -26.6223 -17.8438 -15.4585 -13.2715 -10.0346
    -9.3454  -4.7435  -1.1233  -1.0182  -0.1603   0.6754   0.9763   1.7238
     5.7694  10.4379  11.0209

          k =-0.0140-0.0140-0.5969 (  1562 PWs)   bands (ev):

   -57.8557 -50.9895 -39.4507 -26.6166 -17.8594 -15.3414 -13.4034  -9.9872
    -9.3379  -4.7414  -1.2113  -1.1088  -0.1203   0.5735   1.1532   1.8863
     5.7399   9.7531  10.2731

          k =-0.1661 0.1562-0.1355 (  1572 PWs)   bands (ev):

   -57.8561 -50.9898 -39.4490 -26.6251 -17.8288 -15.5247 -13.1513 -10.0182
    -9.4325  -4.7128  -1.1731  -0.9849  -0.2672   0.5993   0.8905   1.6931
     6.3215   9.8268  11.5411

          k =-0.1591 0.1632 0.1629 (  1585 PWs)   bands (ev):

   -57.8565 -50.9899 -39.4502 -26.6286 -17.8383 -15.4856 -13.1950 -10.0140
    -9.4313  -4.7141  -1.1809  -1.0072  -0.3000   0.6687   0.8257   1.7447
     6.3356   9.9831  11.2394

          k =-0.1801 0.1422-0.7325 (  1589 PWs)   bands (ev):

   -57.8565 -50.9905 -39.4518 -26.6274 -17.8555 -15.3730 -13.3285  -9.9526
    -9.4414  -4.7205  -1.2462  -1.1032  -0.3225   0.6782   0.9268   1.8755
     6.3981   9.3544  10.1723

          k =-0.1731 0.1492-0.4340 (  1580 PWs)   bands (ev):

   -57.8564 -50.9901 -39.4510 -26.6267 -17.8474 -15.4158 -13.2819  -9.9556
    -9.4441  -4.7159  -1.2516  -1.0882  -0.2981   0.6981   0.9107   1.8267
     6.3948   9.3079  10.3288

          k = 0.3322-0.3124 0.2711 (  1580 PWs)   bands (ev):

   -57.8566 -50.9905 -39.4511 -26.6274 -17.8333 -15.4872 -13.1613  -9.9205
    -9.5527  -4.6897  -1.2878  -1.0624  -0.3709   0.4968   0.9436   1.7593
     7.3718   8.2687  11.4342

          k = 0.3392-0.3054 0.5696 (  1581 PWs)   bands (ev):

   -57.8564 -50.9903 -39.4502 -26.6287 -17.8396 -15.4439 -13.2021  -9.9076
    -9.5533  -4.6816  -1.3456  -1.0628  -0.3968   0.6025   0.8848   1.8246
     7.5509   8.1240  10.7815

          k = 0.3182-0.3264-0.3258 (  1590 PWs)   bands (ev):

   -57.8569 -50.9904 -39.4534 -26.6300 -17.8488 -15.4050 -13.2530  -9.9043
    -9.5540  -4.6893  -1.2950  -1.0926  -0.4348   0.5580   0.8940   1.8627
     7.4745   8.2615  10.8666

          k = 0.0005 0.3194-0.2636 (  1589 PWs)   bands (ev):

   -57.8563 -50.9902 -39.4504 -26.6268 -17.8678 -15.4174 -13.2519  -9.9554
    -9.4521  -4.6853  -1.3379  -1.1203  -0.3064   0.6718   0.9366   1.8663
     6.6851   9.3915   9.8866

          k = 0.0075 0.3264 0.0349 (  1582 PWs)   bands (ev):

   -57.8566 -50.9895 -39.4493 -26.6264 -17.8532 -15.5111 -13.1519  -9.9997
    -9.4331  -4.6785  -1.2032  -0.9812  -0.2845   0.6282   0.8975   1.6615
     6.6054  10.0905  10.4615

          k =-0.0135 0.3054-0.8605 (  1587 PWs)   bands (ev):

   -57.8567 -50.9897 -39.4510 -26.6254 -17.8603 -15.4631 -13.2134  -9.9809
    -9.4257  -4.6951  -1.0894  -1.0175  -0.3414   0.6901   0.8598   1.6131
     6.7351   9.7739  10.5265

          k =-0.0065 0.3124-0.5620 (  1589 PWs)   bands (ev):

   -57.8563 -50.9903 -39.4511 -26.6270 -17.8764 -15.3652 -13.3174  -9.9368
    -9.4440  -4.6884  -1.2628  -1.1827  -0.3315   0.6880   0.9537   1.8707
     6.8439   9.0798   9.6849

          k = 0.4988-0.1492 0.1431 (  1587 PWs)   bands (ev):

   -57.8566 -50.9907 -39.4511 -26.6277 -17.8622 -15.4380 -13.1923  -9.8920
    -9.5586  -4.6635  -1.3231  -1.1390  -0.4098   0.6123   0.9155   1.7751
     7.6856   8.6228  10.1997

          k = 0.5058-0.1422 0.4416 (  1588 PWs)   bands (ev):

   -57.8565 -50.9904 -39.4509 -26.6277 -17.8561 -15.4734 -13.1570  -9.8983
    -9.5562  -4.6530  -1.3231  -1.0464  -0.3935   0.5265   0.9632   1.7185
     7.7181   8.4364  10.5923

          k = 0.4848-0.1632-0.4539 (  1592 PWs)   bands (ev):

   -57.8566 -50.9905 -39.4515 -26.6307 -17.8631 -15.4338 -13.2042  -9.8888
    -9.5581  -4.6486  -1.3103  -1.1030  -0.4227   0.6077   0.9068   1.7675
     7.7571   8.6366   9.9777

          k = 0.4918-0.1562-0.1554 (  1595 PWs)   bands (ev):

   -57.8567 -50.9908 -39.4516 -26.6305 -17.8695 -15.3964 -13.2382  -9.8835
    -9.5609  -4.6628  -1.3501  -1.1165  -0.4459   0.5867   0.9193   1.8406
     7.8622   8.4262  10.2174

          k = 0.3327 0.0070 0.0075 (  1589 PWs)   bands (ev):

   -57.8562 -50.9906 -39.4498 -26.6303 -17.8607 -15.4759 -13.1848 -10.0005
    -9.4347  -4.6891  -1.2431  -1.0269  -0.3044   0.6955   0.8361   1.7315
     6.6328   9.9133  10.4837

          k = 0.3397 0.0140 0.3060 (  1592 PWs)   bands (ev):

   -57.8568 -50.9904 -39.4517 -26.6290 -17.8561 -15.5041 -13.1733  -9.9883
    -9.4329  -4.6979  -1.0907  -0.9996  -0.3167   0.6301   0.9092   1.5542
     6.7370   9.5703  10.7849

          k = 0.3187-0.0070-0.5894 (  1584 PWs)   bands (ev):

   -57.8564 -50.9902 -39.4511 -26.6264 -17.8704 -15.4022 -13.2815  -9.9343
    -9.4445  -4.6782  -1.2553  -1.1260  -0.3086   0.7066   0.9337   1.8000
     6.8752   9.1301   9.5220

          k =-0.0010-0.6389 0.5271 (  1600 PWs)   bands (ev):

   -57.8568 -50.9912 -39.4510 -26.6341 -17.8905 -15.3867 -13.2254  -9.8632
    -9.5687  -4.6387  -1.3366  -1.2093  -0.4512   0.6337   0.9321   1.8149
     8.1909   9.0297   9.4612

          k = 0.0060-0.6318 0.8256 (  1589 PWs)   bands (ev):

   -57.8563 -50.9904 -39.4509 -26.6287 -17.8821 -15.4257 -13.1898  -9.8694
    -9.5631  -4.6328  -1.3346  -1.1027  -0.4392   0.5959   0.9516   1.7230
     8.2092   8.8849   9.3496

          k =-0.0150-0.6529-0.0698 (  1606 PWs)   bands (ev):

   -57.8570 -50.9905 -39.4513 -26.6307 -17.8769 -15.4620 -13.1576  -9.8779
    -9.5615  -4.6190  -1.3040  -1.1160  -0.4151   0.5779   0.9704   1.6684
     8.1014   8.9718   9.6533

          k =-0.1666-0.1632 0.1280 (  1572 PWs)   bands (ev):

   -57.8559 -50.9893 -39.4491 -26.6226 -17.8645 -15.4562 -13.2413 -10.0296
    -9.3539  -4.7059  -1.2995  -0.9819  -0.1454   0.6791   0.9319   1.8228
     6.0326   9.3191  11.8689

          k =-0.1736-0.1702-0.1705 (  1585 PWs)   bands (ev):

   -57.8564 -50.9892 -39.4501 -26.6248 -17.8516 -15.5412 -13.1658 -10.0538
    -9.3442  -4.7210  -1.0536  -0.8379  -0.2294   0.7494   0.8579   1.4906
     6.1250  10.0783  11.2459

          k =-0.1526-0.1492 0.7250 (  1589 PWs)   bands (ev):

   -57.8565 -50.9897 -39.4522 -26.6242 -17.8695 -15.4342 -13.2910 -10.0044
    -9.3424  -4.7215  -1.0750  -1.0444  -0.1869   0.6677   1.0245   1.6241
     6.2414   9.2460  10.3377

          k =-0.1596-0.1562 0.4265 (  1580 PWs)   bands (ev):

   -57.8559 -50.9897 -39.4508 -26.6211 -17.8814 -15.3430 -13.3747  -9.9826
    -9.3519  -4.7094  -1.2911  -1.1688  -0.1363   0.5743   1.1280   1.9418
     6.2401   8.6145  10.9968

          k = 0.3332 0.3264-0.2560 (  1580 PWs)   bands (ev):

   -57.8562 -50.9899 -39.4511 -26.6236 -17.8994 -15.3453 -13.3478  -9.9820
    -9.3611  -4.6861  -1.4121  -1.1288  -0.1466   0.5714   1.0922   1.9906
     6.8355   7.6242  11.7393

          k = 0.3262 0.3194-0.5545 (  1581 PWs)   bands (ev):

   -57.8559 -50.9893 -39.4491 -26.6220 -17.8873 -15.4314 -13.2598  -9.9969
    -9.3488  -4.6823  -1.2325  -1.0330  -0.1676   0.6774   0.9861   1.7288
     6.9174   7.9507  11.0682

          k = 0.3472 0.3404 0.3409 (  1590 PWs)   bands (ev):

   -57.8568 -50.9893 -39.4529 -26.6255 -17.8732 -15.5202 -13.1882 -10.0248
    -9.3396  -4.6915  -0.9690  -0.8816  -0.2852   0.7586   0.9078   1.3684
     6.8353   8.8555  10.5450

          k = 0.4993 0.1702-0.1205 (  1587 PWs)   bands (ev):

   -57.8565 -50.9904 -39.4510 -26.6283 -17.8939 -15.3674 -13.2880  -9.9370
    -9.4506  -4.6624  -1.3764  -1.1566  -0.3361   0.6719   0.9590   1.9034
     7.4982   8.0368  10.2635

          k = 0.4923 0.1632-0.4189 (  1588 PWs)   bands (ev):

   -57.8564 -50.9901 -39.4505 -26.6244 -17.8882 -15.4043 -13.2520  -9.9358
    -9.4497  -4.6520  -1.3550  -1.1188  -0.3144   0.6767   0.9477   1.8427
     7.4458   8.1564  10.1423

          k = 0.5133 0.1842 0.4765 (  1592 PWs)   bands (ev):

   -57.8565 -50.9897 -39.4512 -26.6258 -17.8760 -15.4899 -13.1704  -9.9667
    -9.4307  -4.6570  -1.0923  -1.0423  -0.3290   0.6774   0.9163   1.5250
     7.2824   9.0823  10.2493

          k = 0.5063 0.1772 0.1780 (  1595 PWs)   bands (ev):

   -57.8567 -50.9904 -39.4515 -26.6279 -17.8820 -15.4543 -13.2036  -9.9670
    -9.4315  -4.6695  -1.1182  -1.0926  -0.3462   0.7116   0.8784   1.6052
     7.3074   8.9524  10.3193

          k = 0.3257 0.0000-0.2909 (  1592 PWs)   bands (ev):

   -57.8567 -50.9904 -39.4515 -26.6271 -17.8771 -15.3759 -13.2996  -9.9523
    -9.4470  -4.6825  -1.3481  -1.1238  -0.3278   0.6603   0.9374   1.9210
     6.7635   9.2203   9.9258

     the Fermi energy is     1.3129 ev

!    total energy              =    -189.48262063 Ry
     estimated scf accuracy    <          5.0E-10 Ry
     smearing contrib. (-TS)   =      -0.00350504 Ry
     internal energy E=F+TS    =    -189.47911559 Ry

     The total energy is F=E-TS. E is the sum of the following terms:
     one-electron contribution =    -226.68629502 Ry
     hartree contribution      =     120.24002345 Ry
     xc contribution           =     -39.51984143 Ry
     ewald contribution        =      -5.46147801 Ry
     one-center paw contrib.   =     -38.05152459 Ry

     convergence has been achieved in  12 iterations

     Forces acting on atoms (cartesian axes, Ry/au):

     atom    1 type  1   force =    -0.93565973    0.43020411    3.91190707
     atom    2 type  1   force =     0.43394238   -0.94539883    3.91809877
     atom    3 type  2   force =    -3.55484830    1.43128251   -3.43351582
     atom    4 type  2   force =     1.42465094   -3.54108826   -3.42077829
     atom    5 type  2   force =     2.88047320    2.87406232   -1.39213732
     atom    6 type  2   force =    -0.24855849   -0.24906185    0.41642558

     Total force =    10.214449     Total SCF correction =     0.000053


     Computing stress (Cartesian axis) and pressure

          total   stress  (Ry/bohr**3)                   (kbar)     P=     2913.61
   0.01552937  -0.00666083  -0.00132030         2284.45     -979.84     -194.22
  -0.00666083   0.01551298  -0.00138144         -979.84     2282.04     -203.22
  -0.00132030  -0.00138144   0.02837658         -194.22     -203.22     4174.34

     Energy error            =      8.0E+00 Ry
     Gradient error          =      3.9E+00 Ry/Bohr
     Cell gradient error     =      4.2E+03 kbar

     number of scf cycles    =   3
     number of bfgs steps    =   2

     enthalpy           old  =    -181.4993053722 Ry
     enthalpy           new  =    -189.4826206329 Ry

     CASE: enthalpy          _new < enthalpy          _old

     new trust radius        =       0.8000000000 bohr
     new conv_thr            =       0.0000000100 Ry

     new unit-cell volume =    577.85646 a.u.^3 (    85.62949 Ang^3 )
     density =      0.11635 g/cm^3

CELL_PARAMETERS (angstrom)
   3.048840433   3.120811560  -0.067443967
  -3.428333431   3.492477616  -0.002397947
  -0.219044288   2.952978499   3.980620998

ATOMIC_POSITIONS (angstrom)
Li               0.0713173419        1.0632686493        1.2079827728
Li               1.0655794017        0.0684865189        1.2094143444
O                0.1445148992        1.1452839732       -0.7102974699
O                1.1437434755        0.1479073164       -0.7065340681
O                0.6790712897        0.6778089677       -0.2477976339
O               -0.0162326311       -0.0168082443        1.7508419846



     Writing config-only to output data dir ./tmp/pwscf.save/ :
     XML data file
     NEW-OLD atomic charge density approx. for the potential
     New effective cutoffs (rho, wfc):  294.68   36.75

     Check: negative core charge=   -0.000014

     negative rho (up, down):  1.393E-03 0.000E+00

     total cpu time spent up to now is       47.6 secs

     Self-consistent Calculation

     iteration #  1     ecut=    40.00 Ry     beta= 0.70
     Davidson diagonalization with overlap
     c_bands:  1 eigenvalues not converged
     c_bands:  1 eigenvalues not converged
     c_bands:  2 eigenvalues not converged
     c_bands:  1 eigenvalues not converged
     c_bands:  2 eigenvalues not converged
     c_bands:  1 eigenvalues not converged
     c_bands:  1 eigenvalues not converged
     c_bands:  1 eigenvalues not converged
     c_bands:  1 eigenvalues not converged
     c_bands:  1 eigenvalues not converged
     c_bands:  1 eigenvalues not converged
     ethr =  1.00E-06,  avg # of iterations = 17.9

     total cpu time spent up to now is       52.7 secs

     total energy              =    -190.86393234 Ry
     estimated scf accuracy    <       1.50453942 Ry

     iteration #  2     ecut=    40.00 Ry     beta= 0.70
     Davidson diagonalization with overlap
     ethr =  5.02E-03,  avg # of iterations =  2.5

     total cpu time spent up to now is       53.8 secs

     total energy              =    -190.25358332 Ry
     estimated scf accuracy    <       4.68086231 Ry

     iteration #  3     ecut=    40.00 Ry     beta= 0.70
     Davidson diagonalization with overlap
     ethr =  5.02E-03,  avg # of iterations =  2.1

     total cpu time spent up to now is       54.8 secs

     total energy              =    -191.41962862 Ry
     estimated scf accuracy    <       0.56611573 Ry

     iteration #  4     ecut=    40.00 Ry     beta= 0.70
     Davidson diagonalization with overlap
     ethr =  1.89E-03,  avg # of iterations =  1.3

     total cpu time spent up to now is       55.6 secs

     total energy              =    -191.42487548 Ry
     estimated scf accuracy    <       0.13967476 Ry

     iteration #  5     ecut=    40.00 Ry     beta= 0.70
     Davidson diagonalization with overlap
     ethr =  4.66E-04,  avg # of iterations =  2.0

     total cpu time spent up to now is       56.5 secs

     total energy              =    -191.43229002 Ry
     estimated scf accuracy    <       0.02090812 Ry

     iteration #  6     ecut=    40.00 Ry     beta= 0.70
     Davidson diagonalization with overlap
     ethr =  6.97E-05,  avg # of iterations =  2.8

     total cpu time spent up to now is       57.5 secs

     total energy              =    -191.43615680 Ry
     estimated scf accuracy    <       0.00078158 Ry

     iteration #  7     ecut=    40.00 Ry     beta= 0.70
     Davidson diagonalization with overlap
     ethr =  2.61E-06,  avg # of iterations =  7.4

     total cpu time spent up to now is       59.0 secs

     total energy              =    -191.43651465 Ry
     estimated scf accuracy    <       0.00027766 Ry

     iteration #  8     ecut=    40.00 Ry     beta= 0.70
     Davidson diagonalization with overlap
     ethr =  9.26E-07,  avg # of iterations =  2.0

     total cpu time spent up to now is       59.9 secs

     total energy              =    -191.43655535 Ry
     estimated scf accuracy    <       0.00003488 Ry

     iteration #  9     ecut=    40.00 Ry     beta= 0.70
     Davidson diagonalization with overlap
     ethr =  1.16E-07,  avg # of iterations =  2.0

     total cpu time spent up to now is       60.9 secs

     total energy              =    -191.43656283 Ry
     estimated scf accuracy    <       0.00000080 Ry

     iteration # 10     ecut=    40.00 Ry     beta= 0.70
     Davidson diagonalization with overlap
     ethr =  2.68E-09,  avg # of iterations =  4.2

     total cpu time spent up to now is       62.1 secs

     total energy              =    -191.43656319 Ry
     estimated scf accuracy    <       0.00000103 Ry

     iteration # 11     ecut=    40.00 Ry     beta= 0.70
     Davidson diagonalization with overlap
     ethr =  2.68E-09,  avg # of iterations =  1.8

     total cpu time spent up to now is       63.0 secs

     total energy              =    -191.43656327 Ry
     estimated scf accuracy    <       0.00000007 Ry

     iteration # 12     ecut=    40.00 Ry     beta= 0.70
     Davidson diagonalization with overlap
     ethr =  2.31E-10,  avg # of iterations =  3.0

     total cpu time spent up to now is       64.1 secs

     total energy              =    -191.43656330 Ry
     estimated scf accuracy    <       0.00000003 Ry

     iteration # 13     ecut=    40.00 Ry     beta= 0.70
     Davidson diagonalization with overlap
     ethr =  8.57E-11,  avg # of iterations =  2.0

     total cpu time spent up to now is       65.0 secs

     End of self-consistent calculation

          k = 0.0000 0.0000 0.0000 (  1581 PWs)   bands (ev):

   -46.5945 -45.1568 -43.2440 -34.1459 -20.6624 -19.6481 -13.6509 -10.7694
    -9.3118  -4.9773  -2.1009  -1.4512  -0.0450   0.9125   0.9611   3.7292
     4.6883   7.9904   9.1462

          k = 0.0028 0.0029 0.2617 (  1572 PWs)   bands (ev):

   -46.5972 -45.1599 -43.2437 -34.1350 -20.6482 -19.6543 -13.6508 -10.7498
    -9.3066  -4.9613  -2.1962  -1.4273  -0.1384   0.9164   0.9957   3.9013
     4.9400   7.1505   8.3326

          k =-0.0056-0.0058-0.5233 (  1562 PWs)   bands (ev):

   -46.5942 -45.1580 -43.2448 -34.1360 -20.6519 -19.6621 -13.6508 -10.7196
    -9.3136  -4.9570  -2.2428  -1.4157  -0.2257   0.9088   1.0221   4.4084
     4.8146   6.8015   7.7047

          k =-0.1547 0.1486-0.1187 (  1572 PWs)   bands (ev):

   -46.5941 -45.1569 -43.2442 -34.1373 -20.6507 -19.6337 -13.6473 -10.7119
    -9.3611  -4.9757  -2.1003  -1.5454  -0.0504   0.7951   1.0923   3.9674
     4.9401   7.1797   8.5626

          k =-0.1519 0.1515 0.1429 (  1585 PWs)   bands (ev):

   -46.5966 -45.1578 -43.2452 -34.1415 -20.6586 -19.6619 -13.6474 -10.7103
    -9.3632  -4.9857  -2.1159  -1.5642  -0.0704   0.7925   1.0677   4.0171
     4.9840   7.2372   8.4730

          k =-0.1603 0.1427-0.6421 (  1589 PWs)   bands (ev):

   -46.5958 -45.1589 -43.2455 -34.1449 -20.6628 -19.6555 -13.6474 -10.6875
    -9.3744  -4.9827  -2.2034  -1.5500  -0.1540   0.7985   1.0684   4.3524
     5.1696   6.5832   7.6921

          k =-0.1575 0.1457-0.3804 (  1580 PWs)   bands (ev):

   -46.5960 -45.1592 -43.2449 -34.1405 -20.6517 -19.6559 -13.6476 -10.6904
    -9.3714  -4.9691  -2.1850  -1.5447  -0.1346   0.7940   1.0940   4.2428
     5.1928   6.5717   7.7660

          k = 0.3094-0.2972 0.2375 (  1580 PWs)   bands (ev):

   -46.5982 -45.1589 -43.2459 -34.1403 -20.6472 -19.6421 -13.6445 -10.6519
    -9.4360  -4.9842  -2.1194  -1.6731  -0.0771   0.7265   1.1453   4.2333
     5.4742   6.0726   8.3757

          k = 0.3122-0.2942 0.4991 (  1581 PWs)   bands (ev):

   -46.5950 -45.1572 -43.2459 -34.1466 -20.6529 -19.6493 -13.6441 -10.6445
    -9.4353  -4.9915  -2.1010  -1.6848  -0.0679   0.7205   1.1347   4.3294
     5.4627   6.2644   7.9432

          k = 0.3038-0.3030-0.2859 (  1590 PWs)   bands (ev):

   -46.5997 -45.1598 -43.2464 -34.1432 -20.6619 -19.6568 -13.6441 -10.6457
    -9.4343  -5.0030  -2.1690  -1.6751  -0.0964   0.7305   1.0982   4.3880
     5.6121   6.0200   8.1487

          k = 0.0158 0.3159-0.2334 (  1589 PWs)   bands (ev):

   -46.5970 -45.1589 -43.2451 -34.1441 -20.6599 -19.6392 -13.6502 -10.6893
    -9.3692  -5.0054  -2.1035  -1.5566  -0.2624   0.7464   1.1239   3.9951
     5.5197   6.6987   8.2398

          k = 0.0186 0.3188 0.0282 (  1582 PWs)   bands (ev):

   -46.5958 -45.1566 -43.2446 -34.1356 -20.6651 -19.6516 -13.6484 -10.7004
    -9.3532  -5.0035  -2.0690  -1.5421  -0.2007   0.7627   1.1744   3.8649
     5.2305   7.5985   8.9098

          k = 0.0102 0.3100-0.7568 (  1587 PWs)   bands (ev):

   -46.5970 -45.1604 -43.2448 -34.1396 -20.6726 -19.6613 -13.6474 -10.6944
    -9.3602  -5.0065  -2.1657  -1.5264  -0.2473   0.7711   1.1938   3.9676
     5.3088   7.2937   8.6855

          k = 0.0130 0.3129-0.4951 (  1589 PWs)   bands (ev):

   -46.5963 -45.1590 -43.2458 -34.1445 -20.6727 -19.6687 -13.6489 -10.6754
    -9.3690  -5.0107  -2.1619  -1.5442  -0.3004   0.7580   1.1453   4.1846
     5.4560   6.8196   7.9548

          k = 0.4799-0.1299 0.1228 (  1587 PWs)   bands (ev):

   -46.5988 -45.1597 -43.2463 -34.1393 -20.6657 -19.6522 -13.6461 -10.6370
    -9.4274  -5.0237  -2.0842  -1.6674  -0.2328   0.6749   1.2041   4.1489
     5.7512   6.6109   8.1509

          k = 0.4827-0.1270 0.3844 (  1588 PWs)   bands (ev):

   -46.5971 -45.1584 -43.2456 -34.1420 -20.6642 -19.6518 -13.6457 -10.6389
    -9.4307  -5.0116  -2.0798  -1.6644  -0.2089   0.6742   1.2390   4.0972
     5.8220   6.4153   8.7740

          k = 0.4743-0.1357-0.4006 (  1592 PWs)   bands (ev):

   -46.5974 -45.1590 -43.2456 -34.1433 -20.6688 -19.6522 -13.6455 -10.6347
    -9.4306  -5.0223  -2.1004  -1.6614  -0.2167   0.6795   1.2097   4.1563
     5.8033   6.6758   7.9589

          k = 0.4771-0.1328-0.1389 (  1595 PWs)   bands (ev):

   -46.5976 -45.1601 -43.2461 -34.1474 -20.6761 -19.6588 -13.6461 -10.6345
    -9.4300  -5.0286  -2.1013  -1.6708  -0.2387   0.6705   1.1834   4.2129
     5.8700   6.4778   8.6036

          k = 0.3252 0.0187 0.0040 (  1589 PWs)   bands (ev):

   -46.5964 -45.1573 -43.2456 -34.1441 -20.6673 -19.6517 -13.6487 -10.7004
    -9.3623  -5.0158  -2.0823  -1.5552  -0.2234   0.7582   1.1368   3.9407
     5.1978   7.6056   8.8105

          k = 0.3280 0.0216 0.2657 (  1592 PWs)   bands (ev):

   -46.5975 -45.1606 -43.2446 -34.1444 -20.6722 -19.6627 -13.6474 -10.7017
    -9.3642  -5.0034  -2.1553  -1.5298  -0.2313   0.7687   1.2043   3.9302
     5.2740   7.2005   8.7291

          k = 0.3196 0.0129-0.5193 (  1584 PWs)   bands (ev):

   -46.5956 -45.1578 -43.2449 -34.1367 -20.6667 -19.6592 -13.6485 -10.6759
    -9.3621  -4.9961  -2.1508  -1.5353  -0.2754   0.7791   1.1623   4.1652
     5.4426   6.8542   7.8299

          k =-0.0316-0.6317 0.4669 (  1600 PWs)   bands (ev):

   -46.5987 -45.1567 -43.2470 -34.1478 -20.6808 -19.6531 -13.6478 -10.6246
    -9.4220  -5.0590  -2.0279  -1.6678  -0.3551   0.6134   1.2415   4.0675
     6.2238   7.3777   7.6640

          k =-0.0288-0.6288 0.7286 (  1589 PWs)   bands (ev):

   -46.5959 -45.1588 -43.2454 -34.1416 -20.6757 -19.6407 -13.6473 -10.6248
    -9.4214  -5.0505  -2.0445  -1.6421  -0.3415   0.6243   1.2640   4.0057
     6.3679   7.1130   7.6282

          k =-0.0372-0.6376-0.0564 (  1606 PWs)   bands (ev):

   -46.5991 -45.1592 -43.2456 -34.1459 -20.6812 -19.6684 -13.6475 -10.6302
    -9.4245  -5.0446  -2.0593  -1.6588  -0.3258   0.6225   1.2919   3.9628
     6.2014   7.2316   7.7437

          k =-0.1705-0.1673 0.1147 (  1572 PWs)   bands (ev):

   -46.5949 -45.1564 -43.2439 -34.1350 -20.6624 -19.6404 -13.6529 -10.7414
    -9.2983  -4.9892  -2.0818  -1.4392  -0.2572   0.9196   0.9922   3.7847
     5.0819   7.2521   9.5599

          k =-0.1733-0.1702-0.1469 (  1585 PWs)   bands (ev):

   -46.5965 -45.1582 -43.2434 -34.1386 -20.6722 -19.6497 -13.6501 -10.7546
    -9.3003  -4.9936  -2.1339  -1.4233  -0.2363   0.9053   1.1027   3.6942
     5.0320   7.6605   9.1745

          k =-0.1649-0.1614 0.6380 (  1589 PWs)   bands (ev):

   -46.5967 -45.1596 -43.2441 -34.1417 -20.6754 -19.6682 -13.6507 -10.7337
    -9.3070  -4.9876  -2.2092  -1.4191  -0.3184   0.8882   1.1191   4.0034
     5.0543   7.2320   8.1815

          k =-0.1677-0.1644 0.3764 (  1580 PWs)   bands (ev):

   -46.5954 -45.1580 -43.2440 -34.1369 -20.6644 -19.6480 -13.6529 -10.7187
    -9.3067  -4.9864  -2.1718  -1.4282  -0.3414   0.9051   1.0195   4.0014
     5.3564   6.5714   8.6093

          k = 0.3410 0.3346-0.2294 (  1580 PWs)   bands (ev):

   -46.5983 -45.1601 -43.2454 -34.1387 -20.6697 -19.6608 -13.6552 -10.7193
    -9.3043  -5.0108  -2.1084  -1.4576  -0.4455   0.9007   1.0017   3.8248
     5.7432   6.3806   9.8959

          k = 0.3382 0.3316-0.4911 (  1581 PWs)   bands (ev):

   -46.5947 -45.1561 -43.2435 -34.1369 -20.6760 -19.6428 -13.6524 -10.7255
    -9.2955  -5.0121  -2.1172  -1.4161  -0.4182   0.8951   1.0999   3.7856
     5.5571   6.8227   9.3348

          k = 0.3466 0.3404 0.2939 (  1590 PWs)   bands (ev):

   -46.5997 -45.1634 -43.2441 -34.1408 -20.6840 -19.6759 -13.6501 -10.7450
    -9.2989  -5.0162  -2.1965  -1.4175  -0.3953   0.8822   1.2018   3.7116
     5.5261   6.9049   9.7011

          k = 0.4957 0.1860-0.1107 (  1587 PWs)   bands (ev):

   -46.5990 -45.1611 -43.2459 -34.1454 -20.6710 -19.6603 -13.6516 -10.6798
    -9.3616  -5.0278  -2.1003  -1.5594  -0.4041   0.7174   1.1461   3.9638
     5.9807   6.7246   8.2729

          k = 0.4929 0.1831-0.3724 (  1588 PWs)   bands (ev):

   -46.5978 -45.1581 -43.2454 -34.1411 -20.6716 -19.6412 -13.6511 -10.6789
    -9.3599  -5.0310  -2.0841  -1.5492  -0.3869   0.7312   1.1674   3.9322
     5.9433   6.8277   8.1115

          k = 0.5013 0.1918 0.4126 (  1592 PWs)   bands (ev):

   -46.5967 -45.1596 -43.2447 -34.1381 -20.6778 -19.6641 -13.6484 -10.6873
    -9.3536  -5.0256  -2.1236  -1.5112  -0.3608   0.7420   1.2669   3.8256
     5.7629   7.2061   8.6245

          k = 0.4985 0.1889 0.1510 (  1595 PWs)   bands (ev):

   -46.5985 -45.1585 -43.2456 -34.1462 -20.6795 -19.6484 -13.6487 -10.6869
    -9.3636  -5.0366  -2.1229  -1.5281  -0.3817   0.7300   1.2328   3.8653
     5.7653   7.1781   8.9306

          k = 0.3224 0.0158-0.2576 (  1592 PWs)   bands (ev):

   -46.5979 -45.1589 -43.2453 -34.1417 -20.6745 -19.6498 -13.6499 -10.6849
    -9.3649  -5.0064  -2.1201  -1.5614  -0.2781   0.7634   1.0949   4.0694
     5.5677   6.6956   8.1197

     the Fermi energy is     2.4553 ev

!    total energy              =    -191.43656330 Ry
     estimated scf accuracy    <          1.7E-10 Ry
     smearing contrib. (-TS)   =      -0.00000000 Ry
     internal energy E=F+TS    =    -191.43656330 Ry

     The total energy is F=E-TS. E is the sum of the following terms:
     one-electron contribution =    -202.87347472 Ry
     hartree contribution      =     107.63118597 Ry
     xc contribution           =     -38.85644472 Ry
     ewald contribution        =     -19.29224039 Ry
     one-center paw contrib.   =     -38.04558943 Ry

     convergence has been achieved in  13 iterations

     Forces acting on atoms (cartesian axes, Ry/au):

     atom    1 type  1   force =    -0.12620780    0.81619417   -0.21517455
     atom    2 type  1   force =     0.81223293   -0.12911486   -0.21261125
     atom    3 type  2   force =    -3.58709281    3.20472296   -2.33677858
     atom    4 type  2   force =     3.31358966   -3.72348984   -2.43764740
     atom    5 type  2   force =     0.28978024    0.53531141    4.55160289
     atom    6 type  2   force =    -0.70230222   -0.70362383    0.65060889

     Total force =     9.128725     Total SCF correction =     0.000043


     Computing stress (Cartesian axis) and pressure

          total   stress  (Ry/bohr**3)                   (kbar)     P=     1424.79
   0.01212671  -0.01103822  -0.00089401         1783.90    -1623.78     -131.51
  -0.01103822   0.01212036  -0.00056533        -1623.78     1782.97      -83.16
  -0.00089401  -0.00056533   0.00480957         -131.51      -83.16      707.51

     Energy error            =      2.0E+00 Ry
     Gradient error          =      4.6E+00 Ry/Bohr
     Cell gradient error     =      1.8E+03 kbar

     number of scf cycles    =   4
     number of bfgs steps    =   3

     enthalpy           old  =    -189.4826206329 Ry
     enthalpy           new  =    -191.4365633003 Ry

     CASE: enthalpy          _new < enthalpy          _old

     new trust radius        =       0.8000000000 bohr
     new conv_thr            =       0.0000000100 Ry

     new unit-cell volume =    650.37665 a.u.^3 (    96.37588 Ang^3 )
     density =      0.10338 g/cm^3

CELL_PARAMETERS (angstrom)
   2.969664697   3.046111644   0.025852642
  -3.665242741   3.727237312  -0.000656493
  -0.322054815   3.066747240   4.346113739

ATOMIC_POSITIONS (angstrom)
Li               0.0033992737        1.1484204334        1.6641702511
Li               1.1514942938       -0.0014688961        1.6667566254
O                0.1270445249        1.3515162807       -1.1385401942
O                1.3549137185        0.1261498687       -1.1382217559
O                0.4089351612        0.4195323937       -0.0473054617
O               -0.0093689904       -0.0098433497        1.7976480076



     Writing config-only to output data dir ./tmp/pwscf.save/ :
     XML data file
     NEW-OLD atomic charge density approx. for the potential
     New effective cutoffs (rho, wfc):  305.88   38.23

     Check: negative core charge=   -0.000015

     negative rho (up, down):  1.449E-02 0.000E+00

     total cpu time spent up to now is       65.9 secs

     Self-consistent Calculation

     iteration #  1     ecut=    40.00 Ry     beta= 0.70
     Davidson diagonalization with overlap
     c_bands:  3 eigenvalues not converged
     c_bands:  5 eigenvalues not converged
     c_bands:  1 eigenvalues not converged
     c_bands:  3 eigenvalues not converged
     c_bands:  3 eigenvalues not converged
     c_bands:  3 eigenvalues not converged
     c_bands:  3 eigenvalues not converged
     c_bands:  3 eigenvalues not converged
     c_bands:  3 eigenvalues not converged
     c_bands:  3 eigenvalues not converged
     c_bands:  3 eigenvalues not converged
     c_bands:  2 eigenvalues not converged
     c_bands:  3 eigenvalues not converged
     c_bands:  3 eigenvalues not converged
     c_bands:  3 eigenvalues not converged
     c_bands:  3 eigenvalues not converged
     c_bands:  3 eigenvalues not converged
     c_bands:  3 eigenvalues not converged
     c_bands:  3 eigenvalues not converged
     c_bands:  3 eigenvalues not converged
     c_bands:  3 eigenvalues not converged
     c_bands:  3 eigenvalues not converged
     c_bands:  3 eigenvalues not converged
     c_bands:  5 eigenvalues not converged
     c_bands:  3 eigenvalues not converged
     c_bands:  3 eigenvalues not converged
     c_bands:  3 eigenvalues not converged
     c_bands:  3 eigenvalues not converged
     c_bands:  5 eigenvalues not converged
     c_bands:  1 eigenvalues not converged
     c_bands:  3 eigenvalues not converged
     c_bands:  3 eigenvalues not converged
     c_bands:  3 eigenvalues not converged
     c_bands:  3 eigenvalues not converged
     c_bands:  3 eigenvalues not converged
     ethr =  1.00E-06,  avg # of iterations = 20.2

     total cpu time spent up to now is       71.5 secs

     total energy              =    -193.47670149 Ry
     estimated scf accuracy    <       0.73997806 Ry

     iteration #  2     ecut=    40.00 Ry     beta= 0.70
     Davidson diagonalization with overlap
     ethr =  2.47E-03,  avg # of iterations =  2.0

     total cpu time spent up to now is       72.6 secs

     total energy              =    -193.01308838 Ry
     estimated scf accuracy    <       2.98031734 Ry

     iteration #  3     ecut=    40.00 Ry     beta= 0.70
     Davidson diagonalization with overlap
     ethr =  2.47E-03,  avg # of iterations =  2.0

     total cpu time spent up to now is       73.6 secs

     total energy              =    -193.63054319 Ry
     estimated scf accuracy    <       0.82130274 Ry

     iteration #  4     ecut=    40.00 Ry     beta= 0.70
     Davidson diagonalization with overlap
     ethr =  2.47E-03,  avg # of iterations =  2.0

     total cpu time spent up to now is       74.4 secs

     total energy              =    -193.63204676 Ry
     estimated scf accuracy    <       0.32265262 Ry

     iteration #  5     ecut=    40.00 Ry     beta= 0.70
     Davidson diagonalization with overlap
     ethr =  1.08E-03,  avg # of iterations =  1.1

     total cpu time spent up to now is       75.2 secs

     total energy              =    -193.63556607 Ry
     estimated scf accuracy    <       0.17641246 Ry

     iteration #  6     ecut=    40.00 Ry     beta= 0.70
     Davidson diagonalization with overlap
     ethr =  5.88E-04,  avg # of iterations =  1.1

     total cpu time spent up to now is       76.1 secs

     total energy              =    -193.63756545 Ry
     estimated scf accuracy    <       0.05434478 Ry

     iteration #  7     ecut=    40.00 Ry     beta= 0.70
     Davidson diagonalization with overlap
     ethr =  1.81E-04,  avg # of iterations =  1.9

     total cpu time spent up to now is       76.9 secs

     total energy              =    -193.64057734 Ry
     estimated scf accuracy    <       0.00284890 Ry

     iteration #  8     ecut=    40.00 Ry     beta= 0.70
     Davidson diagonalization with overlap
     ethr =  9.50E-06,  avg # of iterations =  6.5

     total cpu time spent up to now is       78.0 secs

     total energy              =    -193.64002167 Ry
     estimated scf accuracy    <       0.00538198 Ry

     iteration #  9     ecut=    40.00 Ry     beta= 0.70
     Davidson diagonalization with overlap
     ethr =  9.50E-06,  avg # of iterations =  1.1

     total cpu time spent up to now is       78.8 secs

     total energy              =    -193.64050186 Ry
     estimated scf accuracy    <       0.00092309 Ry

     iteration # 10     ecut=    40.00 Ry     beta= 0.70
     Davidson diagonalization with overlap
     ethr =  3.08E-06,  avg # of iterations =  1.3

     total cpu time spent up to now is       79.7 secs

     total energy              =    -193.64059081 Ry
     estimated scf accuracy    <       0.00005552 Ry

     iteration # 11     ecut=    40.00 Ry     beta= 0.70
     Davidson diagonalization with overlap
     ethr =  1.85E-07,  avg # of iterations =  2.0

     total cpu time spent up to now is       80.5 secs

     total energy              =    -193.64059219 Ry
     estimated scf accuracy    <       0.00000915 Ry

     iteration # 12     ecut=    40.00 Ry     beta= 0.70
     Davidson diagonalization with overlap
     ethr =  3.05E-08,  avg # of iterations =  2.0

     total cpu time spent up to now is       81.4 secs

     total energy              =    -193.64059317 Ry
     estimated scf accuracy    <       0.00000043 Ry

     iteration # 13     ecut=    40.00 Ry     beta= 0.70
     Davidson diagonalization with overlap
     ethr =  1.43E-09,  avg # of iterations =  3.8

     total cpu time spent up to now is       82.5 secs

     total energy              =    -193.64059330 Ry
     estimated scf accuracy    <       0.00000008 Ry

     iteration # 14     ecut=    40.00 Ry     beta= 0.70
     Davidson diagonalization with overlap
     ethr =  2.66E-10,  avg # of iterations =  1.7

     total cpu time spent up to now is       83.3 secs

     total energy              =    -193.64059330 Ry
     estimated scf accuracy    <       0.00000001 Ry

     iteration # 15     ecut=    40.00 Ry     beta= 0.70
     Davidson diagonalization with overlap
     ethr =  4.36E-11,  avg # of iterations =  2.1

     total cpu time spent up to now is       84.2 secs

     End of self-consistent calculation

          k = 0.0000 0.0000 0.0000 (  1581 PWs)   bands (ev):

   -45.4948 -44.3303 -25.3321 -18.1128 -16.6145 -15.4283  -7.6289  -6.9698
    -6.2763  -4.9210  -2.0900  -1.7333  -1.1204  -0.9909  -0.4847   0.2405
     2.7977   3.5111   5.2575

          k =-0.0011-0.0010 0.2421 (  1572 PWs)   bands (ev):

   -45.4959 -44.3301 -25.3328 -18.1128 -16.7762 -15.1799  -7.9374  -6.9292
    -6.3010  -4.9142  -2.0587  -1.6842  -1.2451  -0.6657  -0.5158   0.2725
     2.9176   3.5656   5.3746

          k = 0.0021 0.0020-0.4843 (  1562 PWs)   bands (ev):

   -45.4932 -44.3303 -25.3305 -18.1141 -16.9014 -14.9639  -8.1738  -6.9054
    -6.3109  -4.8395  -2.0381  -1.8312  -1.0130  -0.7467  -0.2585   0.2873
     3.0311   3.6739   5.7645

          k =-0.1433 0.1407-0.1099 (  1572 PWs)   bands (ev):

   -45.4920 -44.3312 -25.3304 -18.1366 -16.6404 -15.3585  -7.6959  -6.9730
    -6.2718  -4.8693  -2.0805  -1.6901  -1.1872  -0.9273  -0.5232   0.1401
     2.7361   3.8917   5.2184

          k =-0.1444 0.1396 0.1323 (  1585 PWs)   bands (ev):

   -45.4930 -44.3352 -25.3318 -18.1398 -16.7226 -15.2412  -7.8043  -6.9767
    -6.2838  -4.8865  -2.0969  -1.6627  -1.2705  -0.8434  -0.5240   0.1634
     2.8120   3.8536   5.1031

[...]
     ewald contribution        =    -102.78897896 Ry
     one-center paw contrib.   =     -38.14277950 Ry

     convergence has been achieved in   9 iterations

     Forces acting on atoms (cartesian axes, Ry/au):

     atom    1 type  1   force =    -0.00228961    0.00059550   -0.00694974
     atom    2 type  1   force =     0.00795919    0.00105707    0.00086026
     atom    3 type  2   force =    -0.00838728    0.00266405    0.00306381
     atom    4 type  2   force =     0.00182270   -0.01060131    0.00170115
     atom    5 type  2   force =    -0.00100375    0.00519547    0.00408814
     atom    6 type  2   force =     0.00189876    0.00108922   -0.00276362

     Total force =     0.019537     Total SCF correction =     0.000025


     Computing stress (Cartesian axis) and pressure

          total   stress  (Ry/bohr**3)                   (kbar)     P=        2.39
   0.00009265  -0.00000688  -0.00003136           13.63       -1.01       -4.61
  -0.00000688   0.00000383  -0.00003632           -1.01        0.56       -5.34
  -0.00003136  -0.00003632  -0.00004764           -4.61       -5.34       -7.01

     Energy error            =      6.6E-04 Ry
     Gradient error          =      1.1E-02 Ry/Bohr
     Cell gradient error     =      1.4E+01 kbar

     number of scf cycles    =  49
     number of bfgs steps    =  47

     enthalpy           old  =    -195.3158194514 Ry
     enthalpy           new  =    -195.3164828929 Ry

     CASE: enthalpy          _new < enthalpy          _old

     new trust radius        =       0.0399823247 bohr
     new conv_thr            =       0.0000000007 Ry

     new unit-cell volume =    355.49811 a.u.^3 (    52.67939 Ang^3 )
     density =      0.18913 g/cm^3

CELL_PARAMETERS (angstrom)
   2.393958716   2.701401391  -0.264293691
  -3.155062273   3.423460961  -0.293688720
  -0.136334460   2.708198267   2.902868853

ATOMIC_POSITIONS (angstrom)
Li              -0.2947745786        1.7824934120        2.0386708124
Li               1.4100269127       -0.0683665186        0.9395503344
O                0.1699618788        1.0864164612       -1.3575423251
O                1.9889859614       -0.1882079855       -0.9180728518
O               -0.4535428286        1.0335486827       -0.1648549073
O               -0.2334413383       -0.9979123309        1.2212061149



     Writing config-only to output data dir ./tmp/pwscf.save/ :
     XML data file
     NEW-OLD atomic charge density approx. for the potential
     New effective cutoffs (rho, wfc):  438.67   54.73

     Check: negative core charge=   -0.000006

     total cpu time spent up to now is      638.0 secs

     Self-consistent Calculation

     iteration #  1     ecut=    40.00 Ry     beta= 0.70
     Davidson diagonalization with overlap
     ethr =  1.00E-06,  avg # of iterations =  7.3

     total cpu time spent up to now is      640.2 secs

     total energy              =    -195.31680007 Ry
     estimated scf accuracy    <       0.00070187 Ry

     iteration #  2     ecut=    40.00 Ry     beta= 0.70
     Davidson diagonalization with overlap
     ethr =  2.34E-06,  avg # of iterations =  2.0

     total cpu time spent up to now is      641.3 secs

     total energy              =    -195.31667838 Ry
     estimated scf accuracy    <       0.00118276 Ry

     iteration #  3     ecut=    40.00 Ry     beta= 0.70
     Davidson diagonalization with overlap
     ethr =  2.34E-06,  avg # of iterations =  2.0

     total cpu time spent up to now is      642.2 secs

     total energy              =    -195.31691601 Ry
     estimated scf accuracy    <       0.00032646 Ry

     iteration #  4     ecut=    40.00 Ry     beta= 0.70
     Davidson diagonalization with overlap
     ethr =  1.09E-06,  avg # of iterations =  2.0

     total cpu time spent up to now is      643.1 secs

     total energy              =    -195.31694379 Ry
     estimated scf accuracy    <       0.00025614 Ry

     iteration #  5     ecut=    40.00 Ry     beta= 0.70
     Davidson diagonalization with overlap
     ethr =  8.54E-07,  avg # of iterations =  1.0

     total cpu time spent up to now is      643.9 secs

     total energy              =    -195.31697996 Ry
     estimated scf accuracy    <       0.00001106 Ry

     iteration #  6     ecut=    40.00 Ry     beta= 0.70
     Davidson diagonalization with overlap
     ethr =  3.69E-08,  avg # of iterations =  2.2

     total cpu time spent up to now is      644.9 secs

     total energy              =    -195.31698322 Ry
     estimated scf accuracy    <       0.00000392 Ry

     iteration #  7     ecut=    40.00 Ry     beta= 0.70
     Davidson diagonalization with overlap
     ethr =  1.31E-08,  avg # of iterations =  1.8

     total cpu time spent up to now is      645.8 secs

     total energy              =    -195.31698393 Ry
     estimated scf accuracy    <       0.00000011 Ry

     iteration #  8     ecut=    40.00 Ry     beta= 0.70
     Davidson diagonalization with overlap
     ethr =  3.76E-10,  avg # of iterations =  2.7

     total cpu time spent up to now is      646.9 secs

     total energy              =    -195.31698397 Ry
     estimated scf accuracy    <          5.8E-09 Ry

     iteration #  9     ecut=    40.00 Ry     beta= 0.70
     Davidson diagonalization with overlap
     ethr =  1.95E-11,  avg # of iterations =  3.5

     total cpu time spent up to now is      648.0 secs

     End of self-consistent calculation

          k = 0.0000 0.0000 0.0000 (  1581 PWs)   bands (ev):

   -40.2672 -40.1144 -19.7600 -18.2993 -10.3314  -9.5642  -3.7133  -3.1868
    -2.2533  -1.2010  -0.5882   1.5859   3.2017   3.9137   4.2187   4.9836
    10.8942  11.5712  12.1833

          k = 0.0022 0.0306 0.3331 (  1572 PWs)   bands (ev):

   -40.2631 -40.1172 -19.6358 -18.3858 -10.7581  -9.7094  -3.3392  -2.6683
    -1.7802  -1.2979  -0.4969   1.1484   3.2482   3.8459   4.1709   5.3627
     9.9776  10.9154  12.1193

          k =-0.0044-0.0612-0.6662 (  1562 PWs)   bands (ev):

   -40.2590 -40.1202 -19.4875 -18.4942 -11.1525  -9.8395  -2.8629  -1.9158
    -1.7665  -1.2665  -0.4407   0.7252   3.3326   3.9419   4.1106   5.5541
     8.8997  10.2696  12.5335

          k =-0.1705 0.1377-0.1365 (  1572 PWs)   bands (ev):

   -40.2640 -40.1174 -19.6095 -18.5067 -10.5697  -9.1836  -3.7463  -3.2941
    -1.7702  -1.2190  -0.5725   1.1356   2.8861   3.4405   4.0765   5.9065
    11.0864  11.6236  12.1584

          k =-0.1683 0.1684 0.1966 (  1585 PWs)   bands (ev):

   -40.2647 -40.1158 -19.6326 -18.3899 -10.8460  -9.5908  -3.4267  -2.5425
    -1.7667  -1.1507  -0.7507   1.2326   3.1944   3.5343   4.2136   5.6078
     9.9856  10.8073  11.6299

          k =-0.1749 0.0765-0.8027 (  1589 PWs)   bands (ev):

   -40.2607 -40.1188 -19.4826 -18.5008 -11.2102  -9.7495  -2.9825  -1.9271
    -1.6191  -1.1412  -0.5836   0.8202   3.0139   3.6882   4.2813   5.8131
     8.8981  10.1686  11.8294

          k =-0.1727 0.1071-0.4696 (  1580 PWs)   bands (ev):

   -40.2599 -40.1205 -19.4419 -18.6357 -10.9631  -9.3819  -3.2235  -2.6336
    -1.5948  -1.3244  -0.4453   0.6681   2.7952   3.6683   4.0423   6.0779
    10.1406  11.0103  12.1071

          k = 0.3410-0.2755 0.2730 (  1580 PWs)   bands (ev):

   -40.2607 -40.1206 -19.3680 -18.8037 -10.7174  -8.8888  -3.9489  -3.0778
    -1.4753  -1.0911  -0.4360   0.3897   2.4453   3.5132   3.9630   6.4641
    11.1604  11.8468  12.0571

          k = 0.3432-0.2449 0.6061 (  1581 PWs)   bands (ev):

   -40.2615 -40.1189 -19.4365 -18.6416 -11.0218  -9.2906  -3.3302  -2.4215
    -1.8511  -0.9725  -0.5722   0.6099   2.6655   3.4927   4.1859   6.2134
    10.1635  10.8874  11.6235

          k = 0.3366-0.3367-0.3932 (  1590 PWs)   bands (ev):

   -40.2623 -40.1172 -19.4771 -18.5077 -11.2483  -9.6878  -2.9913  -1.9708
    -1.5120  -0.8646  -0.8146   0.6602   3.0462   3.5449   4.3348   5.9342
     8.9839   9.9804  11.5294

          k = 0.0433 0.3210-0.2975 (  1589 PWs)   bands (ev):

   -40.2612 -40.1173 -19.5011 -18.5949 -10.7330  -9.3043  -3.6146  -2.9253
    -1.7580  -1.3134  -0.6721   0.7178   2.7613   3.6913   4.1335   6.0804
    10.6805  11.6426  12.4576

          k = 0.0456 0.3516 0.0357 (  1582 PWs)   bands (ev):

   -40.2628 -40.1156 -19.5979 -18.4549 -10.8135  -9.3147  -3.3440  -3.1127
    -1.7371  -1.3339  -1.0372   1.0905   2.8046   3.5575   4.4248   5.8840
    10.4587  11.8375  12.1973

          k = 0.0389 0.2598-0.9637 (  1587 PWs)   bands (ev):

   -40.2601 -40.1174 -19.5678 -18.4028 -11.0748  -9.7115  -3.2344  -2.3729
    -1.8329  -1.2889  -0.7746   1.2254   3.1012   3.7564   4.5190   5.4827
     9.1818  10.8581  12.7638

          k = 0.0411 0.2904-0.6306 (  1589 PWs)   bands (ev):

   -40.2583 -40.1191 -19.4728 -18.5401 -11.0342  -9.6706  -3.1434  -2.4899
    -2.0080  -1.1135  -0.5084   0.9298   3.1103   3.6635   4.2693   5.7950
     9.4481  10.6695  13.0984

          k = 0.5549-0.0922 0.1121 (  1587 PWs)   bands (ev):

   -40.2592 -40.1192 -19.4100 -18.7002 -10.8251  -9.1838  -3.8020  -2.6596
    -2.0824  -1.1588  -0.3392   0.5654   2.7161   3.5540   4.1071   6.2206
    10.7041  11.6283  12.5464

          k = 0.5571-0.0616 0.4452 (  1588 PWs)   bands (ev):

   -40.2597 -40.1187 -19.3559 -18.7557 -10.9408  -9.0491  -3.5576  -2.8711
    -1.5591  -1.2590  -0.7007   0.3490   2.4320   3.4649   4.3591   6.4082
    10.4428  12.0390  12.1458

          k = 0.5504-0.1535-0.5541 (  1592 PWs)   bands (ev):

   -40.2604 -40.1171 -19.4158 -18.6027 -11.2015  -9.4479  -3.0523  -2.2318
    -1.6590  -1.1625  -1.0160   0.5596   2.6463   3.6608   4.5180   6.1805
     9.2624  10.8658  12.3178

          k = 0.5526-0.1228-0.2210 (  1595 PWs)   bands (ev):

   -40.2599 -40.1175 -19.4595 -18.5568 -11.0945  -9.5728  -3.2671  -2.3698
    -1.9179  -1.0078  -0.5014   0.6053   3.0634   3.5274   4.3615   5.9617
     9.5135  10.5498  12.6833

          k = 0.3844 0.0455-0.0244 (  1589 PWs)   bands (ev):

   -40.2623 -40.1161 -19.6208 -18.4343 -10.6503  -9.4947  -3.7710  -2.7969
    -1.9844  -1.3150  -0.6892   1.2268   3.2833   3.4780   4.0947   5.6506
    10.5757  11.6697  12.4659

          k = 0.3866 0.0762 0.3087 (  1592 PWs)   bands (ev):

   -40.2592 -40.1191 -19.5331 -18.5355 -10.8221  -9.3196  -3.3709  -3.1638
    -1.8736  -1.4345  -0.5113   1.0289   2.8976   3.4656   4.2603   5.8907
    10.5088  11.9555  12.4787

          k = 0.3799-0.0157-0.6906 (  1584 PWs)   bands (ev):

   -40.2588 -40.1186 -19.4225 -18.5944 -11.1803  -9.4947  -3.0046  -2.2348
    -1.8148  -1.2793  -0.7681   0.5725   2.8068   3.6620   4.4264   6.0821
     9.2630  11.0648  12.3649

          k =-0.0867-0.6420 0.5949 (  1600 PWs)   bands (ev):

   -40.2576 -40.1178 -19.4411 -18.6060 -10.9283  -9.4491  -3.7020  -2.6477
    -2.1754  -1.1038  -0.2672   0.5435   3.1812   3.5280   4.2502   5.9410
     9.8015  11.5101  13.6156

          k =-0.0845-0.6114 0.9280 (  1589 PWs)   bands (ev):

   -40.2581 -40.1174 -19.3917 -18.6589 -11.0158  -9.3609  -3.3867  -2.5838
    -2.0141  -1.3335  -0.6491   0.5142   2.6938   3.6638   4.3358   6.1908
    10.2798  11.0448  13.5034

          k =-0.0911-0.7033-0.0713 (  1606 PWs)   bands (ev):

   -40.2586 -40.1170 -19.3371 -18.7151 -11.1488  -9.1870  -3.2713  -2.5358
    -1.7600  -1.2870  -1.0398   0.2869   2.3682   3.6110   4.7195   6.3865
     9.3501  12.0838  13.2906

          k =-0.2139-0.1833 0.1609 (  1572 PWs)   bands (ev):

   -40.2642 -40.1142 -19.6777 -18.3625 -10.5023  -9.6708  -3.5415  -3.0358
    -1.8719  -1.3321  -0.8402   1.1890   3.2271   3.5727   4.4714   5.3705
    10.5513  11.6939  12.3467

          k =-0.2161-0.2139-0.1722 (  1585 PWs)   bands (ev):

   -40.2624 -40.1159 -19.7039 -18.3045 -10.6417  -9.6327  -3.4587  -3.0024
    -2.1140  -1.5214  -0.6966   1.5654   3.2107   4.0250   4.3526   4.9561
    10.5111  11.8789  12.3745

          k =-0.2094-0.1220 0.8272 (  1589 PWs)   bands (ev):

   -40.2584 -40.1189 -19.5722 -18.3968 -11.0410  -9.7711  -3.2000  -2.4478
    -1.8801  -1.2857  -0.6064   1.1420   3.3384   3.8768   4.3021   5.3390
     9.2112  11.0184  13.0715

          k =-0.2116-0.1527 0.4941 (  1580 PWs)   bands (ev):

   -40.2602 -40.1171 -19.5366 -18.4655 -10.9140  -9.8115  -2.9517  -2.6126
    -1.7741  -1.2841  -0.7019   0.8066   3.2396   3.8413   4.3725   5.5811
     9.5474  10.5994  12.7745

          k = 0.4277 0.3666-0.3219 (  1580 PWs)   bands (ev):

   -40.2613 -40.1140 -19.5841 -18.4377 -10.6655  -9.7716  -3.2370  -2.9021
    -1.9320  -1.2504  -0.9513   0.7734   3.0574   3.6734   4.6891   5.6177
     9.9053  11.4560  14.0204

          k = 0.4255 0.3359-0.6550 (  1581 PWs)   bands (ev):

   -40.2596 -40.1158 -19.6159 -18.3728 -10.7967  -9.7470  -3.2190  -2.9019
    -1.9031  -1.4647  -0.9816   1.1767   3.3224   3.7534   4.4528   5.3445
    10.1680  11.2561  13.8078

          k = 0.4321 0.4278 0.3443 (  1590 PWs)   bands (ev):

   -40.2577 -40.1175 -19.6456 -18.3102 -10.9358  -9.6874  -3.3662  -2.8166
    -2.1583  -1.5536  -0.6890   1.5585   3.3298   3.9380   4.5890   4.9413
     9.4583  12.0553  13.5326

          k = 0.5982 0.2288-0.1854 (  1587 PWs)   bands (ev):

   -40.2596 -40.1160 -19.5186 -18.5159 -10.8199  -9.5836  -3.5914  -2.5847
    -2.1378  -1.1855  -0.7198   0.8808   2.9694   3.7931   4.1770   5.9127
     9.8445  11.4986  13.7880

          k = 0.5960 0.1982-0.5185 (  1588 PWs)   bands (ev):

   -40.2600 -40.1155 -19.4803 -18.5560 -10.9592  -9.4340  -3.2473  -2.6510
    -1.7222  -1.4305  -1.0817   0.5607   2.7758   3.6278   4.4497   6.1238
    10.3230  11.1083  13.5671

          k = 0.6026 0.2901 0.4808 (  1592 PWs)   bands (ev):

   -40.2581 -40.1172 -19.5212 -18.4832 -11.0560  -9.4273  -3.1658  -2.8360
    -2.0532  -1.3644  -0.9192   1.0268   2.8270   3.6523   4.6199   5.8540
     9.4076  12.0687  13.3341

          k = 0.6004 0.2594 0.1477 (  1595 PWs)   bands (ev):

   -40.2577 -40.1177 -19.5548 -18.4486 -10.8814  -9.6437  -3.4010  -2.7889
    -2.1169  -1.4515  -0.5922   1.1971   3.3443   3.5905   4.2952   5.5092
    10.0843  11.2275  13.7111

          k = 0.3821 0.0149-0.3575 (  1592 PWs)   bands (ev):

   -40.2619 -40.1157 -19.5255 -18.4801 -11.0015  -9.6788  -3.2580  -2.2368
    -1.7908  -1.1479  -0.8237   0.7757   2.9582   3.7941   4.2105   5.9393
     9.5725  10.5358  12.4406

     the Fermi energy is     4.8509 ev

!    total energy              =    -195.31698397 Ry
     estimated scf accuracy    <          2.9E-10 Ry
     smearing contrib. (-TS)   =      -0.00160898 Ry
     internal energy E=F+TS    =    -195.31537500 Ry

     The total energy is F=E-TS. E is the sum of the following terms:
     one-electron contribution =     -62.77462981 Ry
     hartree contribution      =      44.45276440 Ry
     xc contribution           =     -36.38010184 Ry
     ewald contribution        =    -102.47082251 Ry
     one-center paw contrib.   =     -38.14258523 Ry

     convergence has been achieved in   9 iterations

     Forces acting on atoms (cartesian axes, Ry/au):

     atom    1 type  1   force =    -0.00216509   -0.00089293   -0.00626650
     atom    2 type  1   force =     0.00521090   -0.00260158    0.00002418
     atom    3 type  2   force =    -0.00805930    0.00076107    0.00214545
     atom    4 type  2   force =     0.00000265   -0.00712912    0.00335400
     atom    5 type  2   force =    -0.00007258    0.00644881    0.00375696
     atom    6 type  2   force =     0.00508343    0.00341375   -0.00301410

     Total force =     0.017697     Total SCF correction =     0.000028


     Computing stress (Cartesian axis) and pressure

          total   stress  (Ry/bohr**3)                   (kbar)     P=        1.23
   0.00005865  -0.00002900  -0.00002829            8.63       -4.27       -4.16
  -0.00002900   0.00004421  -0.00004596           -4.27        6.50       -6.76
  -0.00002829  -0.00004596  -0.00007778           -4.16       -6.76      -11.44

     Energy error            =      5.0E-04 Ry
     Gradient error          =      8.1E-03 Ry/Bohr
     Cell gradient error     =      1.1E+01 kbar

     number of scf cycles    =  50
     number of bfgs steps    =  48

     enthalpy           old  =    -195.3164828929 Ry
     enthalpy           new  =    -195.3169839743 Ry

     CASE: enthalpy          _new < enthalpy          _old

     new trust radius        =       0.0879914081 bohr

     The maximum number of steps has been reached.

     End of BFGS Geometry Optimization
     new unit-cell volume =    357.36882 a.u.^3 (    52.95660 Ang^3 )
     density =      0.18814 g/cm^3

CELL_PARAMETERS (angstrom)
   2.413742873   2.688689583  -0.278213535
  -3.166920592   3.411580556  -0.289572359
  -0.143180264   2.697372496   2.908680853

ATOMIC_POSITIONS (angstrom)
Li              -0.3198380275        1.7760731313        2.0612831839
Li               1.4449767788       -0.0581993375        0.9036566536
O                0.1715665320        1.0710961822       -1.3453482480
O                1.9960564036       -0.2058889208       -0.9318660134
O               -0.4680688068        1.0404852101       -0.1572994991
O               -0.2240481650       -0.9881008717        1.2209955330



     Writing config-only to output data dir ./tmp/pwscf.save/ :
     XML data file
     NEW-OLD atomic charge density approx. for the potential
     New effective cutoffs (rho, wfc):  436.28   54.39

     Check: negative core charge=   -0.000006

     Writing all to output data dir ./tmp/pwscf.save/ :
     XML data file, charge density, pseudopotentials, collected wavefunctions

     init_run     :      0.74s CPU      0.77s WALL (       1 calls)
     electrons    :    583.69s CPU    601.25s WALL (      50 calls)
     update_pot   :      5.02s CPU      5.10s WALL (      50 calls)
     forces       :      7.95s CPU      8.05s WALL (      50 calls)
     stress       :     26.06s CPU     26.23s WALL (      50 calls)

     Called by init_run:
     wfcinit      :      0.38s CPU      0.39s WALL (       1 calls)
     potinit      :      0.15s CPU      0.15s WALL (       1 calls)
     hinit0       :      0.19s CPU      0.20s WALL (       1 calls)

     Called by electrons:
     c_bands      :    465.32s CPU    480.21s WALL (     499 calls)
     sum_band     :     60.26s CPU     61.75s WALL (     499 calls)
     v_of_rho     :      6.43s CPU      6.68s WALL (     550 calls)
     newd         :      9.57s CPU      9.68s WALL (     550 calls)
     PAW_pot      :     50.45s CPU     50.60s WALL (     600 calls)
     mix_rho      :      0.79s CPU      0.85s WALL (     499 calls)

     Called by c_bands:
     init_us_2    :      5.81s CPU      6.34s WALL (   41364 calls)
     cegterg      :    455.30s CPU    465.54s WALL (   17965 calls)

     Called by *egterg:
     cdiaghg      :     42.06s CPU     42.60s WALL (   77710 calls)
     h_psi        :    277.86s CPU    286.29s WALL (   79511 calls)
     s_psi        :     29.53s CPU     29.89s WALL (   79511 calls)
     g_psi        :      1.42s CPU      1.44s WALL (   61510 calls)

     Called by h_psi:
     h_psi:calbec :     33.24s CPU     34.12s WALL (   79511 calls)
     vloc_psi     :    213.10s CPU    220.16s WALL (   79511 calls)
                                        0.00s GPU  (   79511 calls)
     add_vuspsi   :     30.33s CPU     30.77s WALL (   79511 calls)

     General routines
     calbec       :     65.96s CPU     67.25s WALL (  129875 calls)
     fft          :      4.87s CPU      5.19s WALL (    8350 calls)
     ffts         :      0.19s CPU      0.20s WALL (    1049 calls)
     fftw         :    228.28s CPU    235.66s WALL ( 2428046 calls)
     interpolate  :      0.48s CPU      0.51s WALL (     550 calls)
     davcio       :      0.00s CPU      0.01s WALL (      36 calls)

     Parallel routines

     PWSCF        :  10m30.75s CPU  10m49.10s WALL


   This run was terminated on:  19:34:27  29Dec2024            

=------------------------------------------------------------------------------=
   JOB DONE.
=------------------------------------------------------------------------------=
