 vasp.6.1.0 28Jan20 (build Mar 09 2020 14:40:17) complex                        
  
 executed on             LinuxIFC date 2024.01.18  14:58:04
 running on    1 total cores
 distrk:  each k-point on    1 cores,    1 groups
 distr:  one band on NCORE=   1 cores,    1 groups


--------------------------------------------------------------------------------------------------------


 INCAR:
 POTCAR:    PAW_PBE Al 04Jan2001                  
 POTCAR:    PAW_PBE O 08Apr2002                   
 POTCAR:    PAW_PBE Al 04Jan2001                  
   SHA256 =  17880443556af62b473fe41b62a467bd001ad55d2cabe504a3f22e34d4e9db96 Al/POTCAR             
   COPYR  = (c) Copyright 04Jan2001 Georg Kresse                                                    
   COPYR  = This file is part of the software VASP. Any use, copying, and all other rights are regul
   COPYR  = If you do not have a valid VASP license, you may not use, copy or distribute this file. 
   VRHFIN =Al: s2p1                                                                                 
   LEXCH  = PE                                                                                      
   EATOM  =    53.5387 eV,    3.9350 Ry                                                             
                                                                                                    
   TITEL  = PAW_PBE Al 04Jan2001                                                                    
   LULTRA =        F    use ultrasoft PP ?                                                          
   IUNSCR =        1    unscreen: 0-lin 1-nonlin 2-no                                               
   RPACOR =    1.500    partial core radius                                                         
   POMASS =   26.981; ZVAL   =    3.000    mass and valenz                                          
   RCORE  =    1.900    outmost cutoff radius                                                       
   RWIGS  =    2.650; RWIGS  =    1.402    wigner-seitz radius (au A)                               
   ENMAX  =  240.300; ENMIN  =  180.225 eV                                                          
   ICORE  =        2    local potential                                                             
   LCOR   =        T    correct aug charges                                                         
   LPAW   =        T    paw PP                                                                      
   EAUG   =  291.052                                                                                
   DEXC   =    0.000                                                                                
   RMAX   =    1.939    core radius for proj-oper                                                   
   RAUG   =    1.300    factor for augmentation sphere                                              
   RDEP   =    1.966    radius for radial grids                                                     
   RDEPT  =    1.856    core radius for aug-charge                                                  
                                                                                                    
   Atomic configuration                                                                             
    6 entries                                                                                       
     n  l   j            E        occ.                                                              
     1  0  0.50     -1511.1048   2.0000                                                             
     2  0  0.50      -108.1629   2.0000                                                             
     2  1  1.50       -69.6402   6.0000                                                             
     3  0  0.50        -7.7528   2.0000                                                             
     3  1  1.50        -2.7121   1.0000                                                             
     3  2  2.50        -2.7212   0.0000                                                             
   Description                                                                                      
     l       E           TYP  RCUT    TYP  RCUT                                                     
     0     -7.7528455     23  1.900                                                                 
     0     -3.3096929     23  1.900                                                                 
     1     -2.7120682     23  1.900                                                                 
     1     13.6058260     23  1.900                                                                 
     2     -2.7211652      7  1.900                                                                 
  local pseudopotential read in
  partial core-charges read in
  partial kinetic energy density read in
  atomic valenz-charges read in
  non local Contribution for L=           0  read in
    real space projection operators read in
  non local Contribution for L=           0  read in
    real space projection operators read in
  non local Contribution for L=           1  read in
    real space projection operators read in
  non local Contribution for L=           1  read in
    real space projection operators read in
    PAW grid and wavefunctions read in
 
   number of l-projection  operators is LMAX  =           4
   number of lm-projection operators is LMMAX =           8
 
 POTCAR:    PAW_PBE O 08Apr2002                   
   SHA256 =  818f92134a0a090dccd8ba1447fa70422a3b330e708bb4f08108d8ae51209ddf O/POTCAR              
   COPYR  = (c) Copyright 08Apr2002 Georg Kresse                                                    
   COPYR  = This file is part of the software VASP. Any use, copying, and all other rights are regul
   COPYR  = If you do not have a valid VASP license, you may not use, copy or distribute this file. 
   VRHFIN =O: s2p4                                                                                  
   LEXCH  = PE                                                                                      
   EATOM  =   432.3788 eV,   31.7789 Ry                                                             
                                                                                                    
   TITEL  = PAW_PBE O 08Apr2002                                                                     
   LULTRA =        F    use ultrasoft PP ?                                                          
   IUNSCR =        1    unscreen: 0-lin 1-nonlin 2-no                                               
   RPACOR =    1.200    partial core radius                                                         
   POMASS =   16.000; ZVAL   =    6.000    mass and valenz                                          
   RCORE  =    1.520    outmost cutoff radius                                                       
   RWIGS  =    1.550; RWIGS  =    0.820    wigner-seitz radius (au A)                               
   ENMAX  =  400.000; ENMIN  =  300.000 eV                                                          
   ICORE  =        2    local potential                                                             
   LCOR   =        T    correct aug charges                                                         
   LPAW   =        T    paw PP                                                                      
   EAUG   =  605.392                                                                                
   DEXC   =    0.000                                                                                
   RMAX   =    1.553    core radius for proj-oper                                                   
   RAUG   =    1.300    factor for augmentation sphere                                              
   RDEP   =    1.550    radius for radial grids                                                     
   RDEPT  =    1.329    core radius for aug-charge                                                  
                                                                                                    
   Atomic configuration                                                                             
    4 entries                                                                                       
     n  l   j            E        occ.                                                              
     1  0  0.50      -514.6923   2.0000                                                             
     2  0  0.50       -23.9615   2.0000                                                             
     2  1  0.50        -9.0305   4.0000                                                             
     3  2  1.50        -9.5241   0.0000                                                             
   Description                                                                                      
     l       E           TYP  RCUT    TYP  RCUT                                                     
     0    -23.9615318     23  1.200                                                                 
     0     -9.5240782     23  1.200                                                                 
     1     -9.0304911     23  1.520                                                                 
     1      8.1634956     23  1.520                                                                 
     2     -9.5240782      7  1.500                                                                 
  local pseudopotential read in
  partial core-charges read in
  partial kinetic energy density read in
  kinetic energy density of atom read in
  atomic valenz-charges read in
  non local Contribution for L=           0  read in
    real space projection operators read in
  non local Contribution for L=           0  read in
    real space projection operators read in
  non local Contribution for L=           1  read in
    real space projection operators read in
  non local Contribution for L=           1  read in
    real space projection operators read in
    PAW grid and wavefunctions read in
 
   number of l-projection  operators is LMAX  =           4
   number of lm-projection operators is LMMAX =           8
 
 Optimization of the real space projectors (new method)

 maximal supplied QI-value         = 19.84
 optimisation between [QCUT,QGAM] = [ 10.12, 20.44] = [ 28.68,116.96] Ry 
 Optimized for a Real-space Cutoff    1.23 Angstroem

   l    n(q)    QCUT    max X(q) W(low)/X(q) W(high)/X(q)  e(spline) 
   0      7    10.119   176.870    0.49E-04    0.18E-03    0.39E-07
   0      7    10.119   105.762    0.46E-04    0.18E-03    0.38E-07
   1      7    10.119    55.370    0.30E-03    0.37E-03    0.12E-06
   1      7    10.119    20.208    0.27E-03    0.35E-03    0.11E-06
 Optimization of the real space projectors (new method)

 maximal supplied QI-value         = 24.76
 optimisation between [QCUT,QGAM] = [ 10.15, 20.30] = [ 28.85,115.39] Ry 
 Optimized for a Real-space Cutoff    1.38 Angstroem

   l    n(q)    QCUT    max X(q) W(low)/X(q) W(high)/X(q)  e(spline) 
   0      8    10.150    20.381    0.22E-03    0.32E-03    0.29E-06
   0      8    10.150    15.268    0.23E-03    0.35E-03    0.30E-06
   1      8    10.150     5.964    0.46E-03    0.53E-03    0.21E-06
   1      8    10.150     5.382    0.38E-03    0.45E-03    0.19E-06
  PAW_PBE Al 04Jan2001                  :
 energy of atom  1       EATOM=  -53.5387
 kinetic energy error for atom=    0.0005 (will be added to EATOM!!)
  PAW_PBE O 08Apr2002                   :
 energy of atom  2       EATOM= -432.3788
 kinetic energy error for atom=    0.1156 (will be added to EATOM!!)
 
 
 POSCAR:    Al  O
  positions in direct lattice
  No initial velocities read in
 exchange correlation table for  LEXCH =        8
   RHO(1)=    0.500       N(1)  =     2000
   RHO(2)=  100.500       N(2)  =     4000

 VTST: version 3.2, (02/03/18)

 CHAIN: initializing optimizer
 
 OPT: Using VASP Dynamics algorithm
 CHAIN: Read ICHAIN            0
 
 POSCAR:    Al  O
  positions in direct lattice
  No initial velocities read in
 


--------------------------------------------------------------------------------------------------------


 ion  position               nearest neighbor table
   1  0.252  0.031  0.390-  18 1.86  13 1.88  12 1.91  20 1.96  10 1.97   9 2.02   2 2.66   5 2.86
                             5 2.90   8 3.11   8 3.11   3 3.17   3 3.17   2 3.19
   2  0.252  0.469  0.610-  18 1.86  14 1.88  11 1.91  20 1.96   9 1.97  10 2.02   1 2.66   6 2.86
                             6 2.90   7 3.11   7 3.11   4 3.17   4 3.17   1 3.19
   3  0.248  0.531  0.110-  17 1.86  15 1.88  10 1.91  19 1.96  12 1.97  11 2.02   4 2.66   7 2.86
                             7 2.90   6 3.11   6 3.11   1 3.17   1 3.17   4 3.19
   4  0.248  0.969  0.890-  17 1.86  16 1.88   9 1.91  19 1.96  11 1.97  12 2.02   3 2.66   8 2.86
                             8 2.90   5 3.11   5 3.11   2 3.17   2 3.17   3 3.19
   5  0.748  0.969  0.610-  20 1.86   9 1.88  16 1.91  18 1.96  14 1.97  13 2.02   6 2.66   1 2.86
                             1 2.90   4 3.11   4 3.11   7 3.17   7 3.17   6 3.19
   6  0.748  0.531  0.390-  20 1.86  10 1.88  15 1.91  18 1.96  13 1.97  14 2.02   5 2.66   2 2.86
                             2 2.90   3 3.11   3 3.11   8 3.17   8 3.17   5 3.19
   7  0.752  0.469  0.890-  19 1.86  11 1.88  14 1.91  17 1.96  16 1.97  15 2.02   8 2.66   3 2.86
                             3 2.90   2 3.11   2 3.11   5 3.17   5 3.17   8 3.19
   8  0.752  0.031  0.110-  19 1.86  12 1.88  13 1.91  17 1.96  15 1.97  16 2.02   7 2.66   4 2.86
                             4 2.90   1 3.11   1 3.11   6 3.17   6 3.17   7 3.19
   9  0.107  0.102  0.654-   5 1.88   4 1.91   2 1.97   1 2.02
  10  0.107  0.398  0.346-   6 1.88   3 1.91   1 1.97   2 2.02
  11  0.393  0.602  0.846-   7 1.88   2 1.91   4 1.97   3 2.02
  12  0.393  0.898  0.154-   8 1.88   1 1.91   3 1.97   4 2.02
  13  0.893  0.898  0.346-   1 1.88   8 1.91   6 1.97   5 2.02
  14  0.893  0.602  0.654-   2 1.88   7 1.91   5 1.97   6 2.02
  15  0.607  0.398  0.154-   3 1.88   6 1.91   8 1.97   7 2.02
  16  0.607  0.102  0.846-   4 1.88   5 1.91   7 1.97   8 2.02
  17  0.050  0.250  0.000-   3 1.86   4 1.86   8 1.96   7 1.96
  18  0.450  0.750  0.500-   1 1.86   2 1.86   6 1.96   5 1.96
  19  0.950  0.750  0.000-   8 1.86   7 1.86   3 1.96   4 1.96
  20  0.550  0.250  0.500-   6 1.86   5 1.86   2 1.96   1 1.96
 
  LATTYP: Found a simple orthorhombic cell.
 ALAT       =     4.8193593931
 B/A-ratio  =     1.0284415337
 C/A-ratio  =     1.4618613431
  
  Lattice vectors:
  
 A1 = (   4.8193593931,   0.0000000000,   0.0000000000)
 A2 = (   0.0000000000,   4.9564293655,   0.0000000000)
 A3 = (   0.0000000000,   0.0000000000,   7.0452351952)


Analysis of symmetry for initial positions (statically):
=====================================================================
 Subroutine PRICEL returns:
 Original cell was already a primitive cell.
 

 Routine SETGRP: Setting up the symmetry group for a 
 simple orthorhombic supercell.


 Subroutine GETGRP returns: Found  8 space group operations
 (whereof  2 operations were pure point group operations)
 out of a pool of  8 trial point group operations.


The static configuration has the point symmetry S_2 .
 The point group associated with its full space group is D_2h.


Analysis of symmetry for dynamics (positions and initial velocities):
=====================================================================
 Subroutine PRICEL returns:
 Original cell was already a primitive cell.
 

 Routine SETGRP: Setting up the symmetry group for a 
 simple orthorhombic supercell.


 Subroutine GETGRP returns: Found  8 space group operations
 (whereof  2 operations were pure point group operations)
 out of a pool of  8 trial point group operations.


The dynamic configuration has the point symmetry S_2 .
 The point group associated with its full space group is D_2h.


Analysis of constrained symmetry for selective dynamics:
=====================================================================
 Subroutine PRICEL returns:
 Original cell was already a primitive cell.
 

 Routine SETGRP: Setting up the symmetry group for a 
 simple orthorhombic supercell.


 Subroutine GETGRP returns: Found  8 space group operations
 (whereof  2 operations were pure point group operations)
 out of a pool of  8 trial point group operations.


The constrained configuration has the point symmetry S_2 .
 The point group associated with its full space group is D_2h.


 Subroutine INISYM returns: Found  8 space group operations
 (whereof  2 operations are pure point group operations),
 and found     1 'primitive' translations


----------------------------------------------------------------------------------------

                                     Primitive cell                                     

  volume of cell :     168.2882

  direct lattice vectors                    reciprocal lattice vectors
     4.819359393  0.000000000  0.000000000     0.207496457  0.000000000  0.000000000
     0.000000000  4.956429365  0.000000000     0.000000000  0.201758146  0.000000000
     0.000000000  0.000000000  7.045235195     0.000000000  0.000000000  0.141939903

  length of vectors
     4.819359393  4.956429365  7.045235195     0.207496457  0.201758146  0.141939903

  position of ions in fractional coordinates (direct lattice)
     0.252300235  0.031396366  0.389988577
     0.252300235  0.468603632  0.610011423
     0.247699765  0.531396368  0.110011408
     0.247699765  0.968603632  0.889988577
     0.747699735  0.968603632  0.610011423
     0.747699735  0.531396368  0.389988577
     0.752300265  0.468603632  0.889988577
     0.752300265  0.031396366  0.110011408
     0.107072754  0.102389751  0.654147657
     0.107072754  0.397610242  0.345852343
     0.392927238  0.602389729  0.845852343
     0.392927238  0.897610271  0.154147642
     0.892927268  0.897610271  0.345852343
     0.892927268  0.602389729  0.654147657
     0.607072732  0.397610242  0.154147642
     0.607072732  0.102389751  0.845852343
     0.050188369  0.250000000  0.000000000
     0.449811635  0.750000000  0.500000000
     0.949811605  0.750000000  0.000000000
     0.550188395  0.250000000  0.500000000

  ion indices of the primitive-cell ions
   primitive index   ion index
                 1           1
                 2           2
                 3           3
                 4           4
                 5           5
                 6           6
                 7           7
                 8           8
                 9           9
                10          10
                11          11
                12          12
                13          13
                14          14
                15          15
                16          16
                17          17
                18          18
                19          19
                20          20

----------------------------------------------------------------------------------------

 
 
 KPOINTS: k-points                                

Automatic generation of k-mesh.
Space group operators:
 irot       det(A)        alpha          n_x          n_y          n_z        tau_x        tau_y        tau_z
    1     1.000000     0.000000     1.000000     0.000000     0.000000     0.000000     0.000000     0.000000
    2    -1.000000     0.000000     1.000000     0.000000     0.000000     0.000000     0.000000     0.000000
    3     1.000000   179.999999     0.000000     0.000000     1.000000    -0.500000     0.000000    -0.500000
    4    -1.000000   179.999999     0.000000     0.000000     1.000000     0.500000     0.000000     0.500000
    5     1.000000   180.000000     0.000000     1.000000     0.000000    -0.500000    -0.500000     0.500000
    6    -1.000000   180.000000     0.000000     1.000000     0.000000     0.500000     0.500000    -0.500000
    7     1.000000   180.000000     1.000000     0.000000     0.000000     0.000000     0.500000     0.000000
    8    -1.000000   180.000000     1.000000     0.000000     0.000000     0.000000    -0.500000     0.000000
 
 Subroutine IBZKPT returns following result:
 ===========================================
 
 Found      8 irreducible k-points:
 
 Following reciprocal coordinates:
            Coordinates               Weight
  0.125000  0.125000  0.125000      8.000000
  0.375000  0.125000  0.125000      8.000000
  0.125000  0.375000  0.125000      8.000000
  0.375000  0.375000  0.125000      8.000000
  0.125000  0.125000  0.375000      8.000000
  0.375000  0.125000  0.375000      8.000000
  0.125000  0.375000  0.375000      8.000000
  0.375000  0.375000  0.375000      8.000000
 
 Following cartesian coordinates:
            Coordinates               Weight
  0.025937  0.025220  0.017742      8.000000
  0.077811  0.025220  0.017742      8.000000
  0.025937  0.075659  0.017742      8.000000
  0.077811  0.075659  0.017742      8.000000
  0.025937  0.025220  0.053227      8.000000
  0.077811  0.025220  0.053227      8.000000
  0.025937  0.075659  0.053227      8.000000
  0.077811  0.075659  0.053227      8.000000
 


--------------------------------------------------------------------------------------------------------




 Dimension of arrays:
   k-points           NKPTS =      8   k-points in BZ     NKDIM =      8   number of bands    NBANDS=     59
   number of dos      NEDOS =    301   number of ions     NIONS =     20
   non local maximal  LDIM  =      4   non local SUM 2l+1 LMDIM =      8
   total plane-waves  NPLWV =  20736
   max r-space proj   IRMAX =   1408   max aug-charges    IRDMAX=   4995
   dimension x,y,z NGX =    24 NGY =   24 NGZ =   36
   dimension x,y,z NGXF=    48 NGYF=   48 NGZF=   72
   support grid    NGXF=    48 NGYF=   48 NGZF=   72
   ions per type =               8  12
   NGX,Y,Z   is equivalent  to a cutoff of   8.28,  8.05,  8.49 a.u.
   NGXF,Y,Z  is equivalent  to a cutoff of  16.56, 16.10, 16.99 a.u.

 SYSTEM =  Alumina_orthorombic_cell_under_strain   
 POSCAR =     Al  O                                

 Startparameter for this run:
   NWRITE =      2    write-flag & timer
   PREC   = normal    normal or accurate (medium, high low for compatibility)
   ISTART =      0    job   : 0-new  1-cont  2-samecut
   ICHARG =      2    charge: 1-file 2-atom 10-const
   ISPIN  =      1    spin polarized calculation?
   LNONCOLLINEAR =      F non collinear calculations
   LSORBIT =      F    spin-orbit coupling
   INIWAV =      1    electr: 0-lowe 1-rand  2-diag
   LASPH  =      F    aspherical Exc in radial PAW
   METAGGA=      F    non-selfconsistent MetaGGA calc.

 Electronic Relaxation 1
   ENCUT  =  400.0 eV  29.40 Ry    5.42 a.u.   7.86  8.08 11.49*2*pi/ulx,y,z
   ENINI  =  400.0     initial cutoff
   ENAUG  =  605.4 eV  augmentation charge cutoff
   NELM   =    100;   NELMIN=  2; NELMDL= -5     # of ELM steps 
   EDIFF  = 0.1E-05   stopping-criterion for ELM
   LREAL  =      T    real-space projection
   NLSPLINE    = F    spline interpolate recip. space projectors
   LCOMPAT=      F    compatible to vasp.4.4
   GGA_COMPAT  = T    GGA compatible to vasp.4.4-vasp.4.6
   LMAXPAW     = -100 max onsite density
   LMAXMIX     =    2 max onsite mixed and CHGCAR
   VOSKOWN=      0    Vosko Wilk Nusair interpolation
   ROPT   =   -0.00050  -0.00050
 Ionic relaxation
   EDIFFG = -.1E-02   stopping-criterion for IOM
   NSW    =      0    number of steps for IOM
   NBLOCK =      1;   KBLOCK =      1    inner block; outer block 
   IBRION =     -1    ionic relax: 0-MD 1-quasi-New 2-CG
   NFREE  =      0    steps in history (QN), initial steepest desc. (CG)
   ISIF   =      2    stress and relaxation
   IWAVPR =     10    prediction:  0-non 1-charg 2-wave 3-comb
   ISYM   =      2    0-nonsym 1-usesym 2-fastsym
   LCORR  =      T    Harris-Foulkes like correction to forces

   POTIM  = 0.5000    time-step for ionic-motion
   TEIN   =    0.0    initial temperature
   TEBEG  =    0.0;   TEEND  =   0.0 temperature during run
   SMASS  =  -3.00    Nose mass-parameter (am)
   estimated Nose-frequenzy (Omega)   =  0.10E-29 period in steps = 0.13E+47 mass=  -0.531E-27a.u.
   SCALEE = 1.0000    scale energy and forces
   NPACO  =    256;   APACO  = 16.0  distance and # of slots for P.C.
   PSTRESS=    0.0 pullay stress

  Mass of Ions in am
   POMASS =  26.98 16.00
  Ionic Valenz
   ZVAL   =   3.00  6.00
  Atomic Wigner-Seitz radii
   RWIGS  =  -1.00 -1.00
  virtual crystal weights 
   VCA    =   1.00  1.00
   NELECT =      96.0000    total number of electrons
   NUPDOWN=      -1.0000    fix difference up-down

 DOS related values:
   EMIN   =  10.00;   EMAX   =-10.00  energy-range for DOS
   EFERMI =   0.00
   ISMEAR =     1;   SIGMA  =   0.03  broadening in eV -4-tet -1-fermi 0-gaus

 Electronic relaxation 2 (details)
   IALGO  =     38    algorithm
   LDIAG  =      T    sub-space diagonalisation (order eigenvalues)
   LSUBROT=      F    optimize rotation matrix (better conditioning)
   TURBO    =      0    0=normal 1=particle mesh
   IRESTART =      0    0=no restart 2=restart with 2 vectors
   NREBOOT  =      0    no. of reboots
   NMIN     =      0    reboot dimension
   EREF     =   0.00    reference energy to select bands
   IMIX   =      4    mixing-type and parameters
     AMIX     =   0.40;   BMIX     =  1.00
     AMIX_MAG =   1.60;   BMIX_MAG =  1.00
     AMIN     =   0.10
     WC   =   100.;   INIMIX=   1;  MIXPRE=   1;  MAXMIX= -45

 Intra band minimization:
   WEIMIN = 0.0000     energy-eigenvalue tresh-hold
   EBREAK =  0.42E-08  absolut break condition
   DEPER  =   0.30     relativ break condition  

   TIME   =   0.40     timestep for ELM

  volume/ion in A,a.u.               =       8.41        56.78
  Fermi-wavevector in a.u.,A,eV,Ry     =   1.357732  2.565741 25.081466  1.843436
  Thomas-Fermi vector in A             =   2.484625
 
 Write flags
   LWAVE        =      T    write WAVECAR
   LDOWNSAMPLE  =      F    k-point downsampling of WAVECAR
   LCHARG       =      T    write CHGCAR
   LVTOT        =      F    write LOCPOT, total local potential
   LVHAR        =      F    write LOCPOT, Hartree potential only
   LELF         =      F    write electronic localiz. function (ELF)
   LORBIT       =      0    0 simple, 1 ext, 2 COOP (PROOUT), +10 PAW based schemes


 Dipole corrections
   LMONO  =      F    monopole corrections only (constant potential shift)
   LDIPOL =      F    correct potential (dipole corrections)
   IDIPOL =      0    1-x, 2-y, 3-z, 4-all directions 
   EPSILON=  1.0000000 bulk dielectric constant

 Exchange correlation treatment:
   GGA     =    --    GGA type
   LEXCH   =     8    internal setting for exchange type
   VOSKOWN=      0    Vosko Wilk Nusair interpolation
   LHFCALC =     F    Hartree Fock is set to
   LHFONE  =     F    Hartree Fock one center treatment
   AEXX    =    0.0000 exact exchange contribution

 Linear response parameters
   LEPSILON=     F    determine dielectric tensor
   LRPA    =     F    only Hartree local field effects (RPA)
   LNABLA  =     F    use nabla operator in PAW spheres
   LVEL    =     F    velocity operator in full k-point grid
   LINTERFAST=   F  fast interpolation
   KINTER  =     0    interpolate to denser k-point grid
   CSHIFT  =0.1000    complex shift for real part using Kramers Kronig
   OMEGAMAX=  -1.0    maximum frequency
   DEG_THRESHOLD= 0.2000000E-02 threshold for treating states as degnerate
   RTIME   =   -0.100 relaxation time in fs
  (WPLASMAI=    0.000 imaginary part of plasma frequency in eV, 0.658/RTIME)
   DFIELD  = 0.0000000 0.0000000 0.0000000 field for delta impulse in time
 
 Orbital magnetization related:
   ORBITALMAG=     F  switch on orbital magnetization
   LCHIMAG   =     F  perturbation theory with respect to B field
   DQ        =  0.001000  dq finite difference perturbation B field
   LLRAUG    =     F  two centre corrections for induced B field



--------------------------------------------------------------------------------------------------------


 Static calculation
 charge density and potential will be updated during run
 non-spin polarized calculation
 Variant of blocked Davidson
 Davidson routine will perform the subspace rotation
 perform sub-space diagonalisation
    after iterative eigenvector-optimisation
 modified Broyden-mixing scheme, WC =      100.0
 initial mixing is a Kerker type mixing with AMIX =  0.4000 and BMIX =      1.0000
 Hartree-type preconditioning will be used
 using additional bands           11
 real space projection scheme for non local part
 use partial core corrections
 calculate Harris-corrections to forces 
   (improved forces if not selfconsistent)
 use gradient corrections 
 use of overlap-Matrix (Vanderbilt PP)
 Methfessel and Paxton  Order N= 1 SIGMA  =   0.03


--------------------------------------------------------------------------------------------------------


  energy-cutoff  :      400.00
  volume of cell :      168.29
      direct lattice vectors                 reciprocal lattice vectors
     4.819359393  0.000000000  0.000000000     0.207496457  0.000000000  0.000000000
     0.000000000  4.956429365  0.000000000     0.000000000  0.201758146  0.000000000
     0.000000000  0.000000000  7.045235195     0.000000000  0.000000000  0.141939903

  length of vectors
     4.819359393  4.956429365  7.045235195     0.207496457  0.201758146  0.141939903


 
 k-points in units of 2pi/SCALE and weight: k-points                                
   0.02593706  0.02521977  0.01774249       0.125
   0.07781117  0.02521977  0.01774249       0.125
   0.02593706  0.07565930  0.01774249       0.125
   0.07781117  0.07565930  0.01774249       0.125
   0.02593706  0.02521977  0.05322746       0.125
   0.07781117  0.02521977  0.05322746       0.125
   0.02593706  0.07565930  0.05322746       0.125
   0.07781117  0.07565930  0.05322746       0.125
 
 k-points in reciprocal lattice and weights: k-points                                
   0.12500000  0.12500000  0.12500000       0.125
   0.37500000  0.12500000  0.12500000       0.125
   0.12500000  0.37500000  0.12500000       0.125
   0.37500000  0.37500000  0.12500000       0.125
   0.12500000  0.12500000  0.37500000       0.125
   0.37500000  0.12500000  0.37500000       0.125
   0.12500000  0.37500000  0.37500000       0.125
   0.37500000  0.37500000  0.37500000       0.125
 
 position of ions in fractional coordinates (direct lattice) 
   0.25230024  0.03139637  0.38998858
   0.25230024  0.46860363  0.61001142
   0.24769976  0.53139637  0.11001141
   0.24769976  0.96860363  0.88998858
   0.74769973  0.96860363  0.61001142
   0.74769973  0.53139637  0.38998858
   0.75230027  0.46860363  0.88998858
   0.75230027  0.03139637  0.11001141
   0.10707275  0.10238975  0.65414766
   0.10707275  0.39761024  0.34585234
   0.39292724  0.60238973  0.84585234
   0.39292724  0.89761027  0.15414764
   0.89292727  0.89761027  0.34585234
   0.89292727  0.60238973  0.65414766
   0.60707273  0.39761024  0.15414764
   0.60707273  0.10238975  0.84585234
   0.05018837  0.25000000  0.00000000
   0.44981163  0.75000000  0.50000000
   0.94981160  0.75000000  0.00000000
   0.55018840  0.25000000  0.50000000
 
 position of ions in cartesian coordinates  (Angst):
   1.21592551  0.15561387  2.74756125
   1.21592551  2.32260080  4.29767395
   1.19375419  2.63382856  0.77505624
   1.19375419  4.80081549  6.27017885
   3.60343374  4.80081549  4.29767395
   3.60343374  2.63382856  2.74756125
   3.62560535  2.32260080  6.27017885
   3.62560535  0.15561387  0.77505624
   0.51602208  0.50748757  4.60862409
   0.51602208  1.97072708  2.43661110
   1.89365758  2.98570214  5.95922870
   1.89365758  4.44894191  1.08600639
   4.30333742  4.44894191  2.43661110
   4.30333742  2.98570214  4.60862409
   2.92570167  1.97072708  1.08600639
   2.92570167  0.50748757  5.95922870
   0.24187579  1.23910734  0.00000000
   2.16780393  3.71732202  3.52261760
   4.57748348  3.71732202  0.00000000
   2.65155561  1.23910734  3.52261760
 


--------------------------------------------------------------------------------------------------------


 k-point   1 :   0.1250 0.1250 0.1250  plane waves:    3047
 k-point   2 :   0.3750 0.1250 0.1250  plane waves:    3061
 k-point   3 :   0.1250 0.3750 0.1250  plane waves:    3059
 k-point   4 :   0.3750 0.3750 0.1250  plane waves:    3070
 k-point   5 :   0.1250 0.1250 0.3750  plane waves:    3051
 k-point   6 :   0.3750 0.1250 0.3750  plane waves:    3054
 k-point   7 :   0.1250 0.3750 0.3750  plane waves:    3056
 k-point   8 :   0.3750 0.3750 0.3750  plane waves:    3060

 maximum and minimum number of plane-waves per node :      3070     3047

 maximum number of plane-waves:      3070
 maximum index in each direction: 
   IXMAX=    7   IYMAX=    7   IZMAX=   11
   IXMIN=   -8   IYMIN=   -8   IZMIN=  -11


 serial   3D FFT for wavefunctions
 parallel 3D FFT for charge:
    minimum data exchange during FFTs selected (reduces bandwidth)


 total amount of memory used by VASP MPI-rank0    72672. kBytes
=======================================================================

   base      :      30000. kBytes
   nonlr-proj:       2103. kBytes
   fftplans  :       5804. kBytes
   grid      :      10312. kBytes
   one-center:         61. kBytes
   wavefun   :      24392. kBytes
 
     INWAV:  cpu time    0.0001: real time    0.0002
 Broyden mixing: mesh for mixing (old mesh)
   NGX = 15   NGY = 17   NGZ = 23
  (NGX  = 48   NGY  = 48   NGZ  = 72)
  gives a total of   5865 points

 initial charge density was supplied:
 charge density of overlapping atoms calculated
 number of electron      96.0000000 magnetization 
 keeping initial charge density in first step


--------------------------------------------------------------------------------------------------------


 Maximum index for non-local projection operator         1327
 Maximum index for augmentation-charges         4652 (set IRDMAX)


--------------------------------------------------------------------------------------------------------


 First call to EWALD:  gamma=   0.321
 Maximum number of real-space cells 3x 3x 2
 Maximum number of reciprocal cells 2x 3x 3

    FEWALD:  cpu time    0.0029: real time    0.0029


--------------------------------------- Iteration      1(   1)  ---------------------------------------


    POTLOK:  cpu time    0.0720: real time    0.0744
    SETDIJ:  cpu time    0.0198: real time    0.0198
     EDDAV:  cpu time    1.7896: real time    1.7900
       DOS:  cpu time    0.0011: real time    0.0011
    --------------------------------------------
      LOOP:  cpu time    1.8825: real time    1.8852

 eigenvalue-minimisations  :   944
 total energy-change (2. order) : 0.4445885E+03  (-0.4426184E+04)
 number of electron      96.0000000 magnetization 
 augmentation part       96.0000000 magnetization 

 Free energy of the ion-electron system (eV)
  ---------------------------------------------------
  alpha Z        PSCENC =       153.42368795
  Ewald energy   TEWEN  =     -4856.04789668
  -Hartree energ DENC   =     -1238.12995667
  -exchange      EXHF   =         0.00000000
  -V(xc)+E(xc)   XCENC  =       133.09171549
  PAW double counting   =      4688.19497969    -4454.14273673
  entropy T*S    EENTRO =         0.00019464
  eigenvalues    EBANDS =       402.73496354
  atomic energy  EATOM  =      5615.46358700
  Solvation  Ediel_sol  =         0.00000000
  ---------------------------------------------------
  free energy    TOTEN  =       444.58853823 eV

  energy without entropy =      444.58834359  energy(sigma->0) =      444.58847335


--------------------------------------------------------------------------------------------------------




--------------------------------------- Iteration      1(   2)  ---------------------------------------


     EDDAV:  cpu time    2.0961: real time    2.0967
       DOS:  cpu time    0.0012: real time    0.0012
    --------------------------------------------
      LOOP:  cpu time    2.0973: real time    2.0979

 eigenvalue-minimisations  :  1163
 total energy-change (2. order) :-0.5812396E+03  (-0.5678449E+03)
 number of electron      96.0000000 magnetization 
 augmentation part       96.0000000 magnetization 

 Free energy of the ion-electron system (eV)
  ---------------------------------------------------
  alpha Z        PSCENC =       153.42368795
  Ewald energy   TEWEN  =     -4856.04789668
  -Hartree energ DENC   =     -1238.12995667
  -exchange      EXHF   =         0.00000000
  -V(xc)+E(xc)   XCENC  =       133.09171549
  PAW double counting   =      4688.19497969    -4454.14273673
  entropy T*S    EENTRO =         0.00018843
  eigenvalues    EBANDS =      -178.50464756
  atomic energy  EATOM  =      5615.46358700
  Solvation  Ediel_sol  =         0.00000000
  ---------------------------------------------------
  free energy    TOTEN  =      -136.65107907 eV

  energy without entropy =     -136.65126751  energy(sigma->0) =     -136.65114189


--------------------------------------------------------------------------------------------------------




--------------------------------------- Iteration      1(   3)  ---------------------------------------


     EDDAV:  cpu time    2.0276: real time    2.0283
       DOS:  cpu time    0.0010: real time    0.0010
    --------------------------------------------
      LOOP:  cpu time    2.0287: real time    2.0293

 eigenvalue-minimisations  :  1112
 total energy-change (2. order) :-0.2706473E+02  (-0.2696386E+02)
 number of electron      96.0000000 magnetization 
 augmentation part       96.0000000 magnetization 

 Free energy of the ion-electron system (eV)
  ---------------------------------------------------
  alpha Z        PSCENC =       153.42368795
  Ewald energy   TEWEN  =     -4856.04789668
  -Hartree energ DENC   =     -1238.12995667
  -exchange      EXHF   =         0.00000000
  -V(xc)+E(xc)   XCENC  =       133.09171549
  PAW double counting   =      4688.19497969    -4454.14273673
  entropy T*S    EENTRO =         0.00030607
  eigenvalues    EBANDS =      -205.56949432
  atomic energy  EATOM  =      5615.46358700
  Solvation  Ediel_sol  =         0.00000000
  ---------------------------------------------------
  free energy    TOTEN  =      -163.71580819 eV

  energy without entropy =     -163.71611426  energy(sigma->0) =     -163.71591021


--------------------------------------------------------------------------------------------------------




--------------------------------------- Iteration      1(   4)  ---------------------------------------


     EDDAV:  cpu time    2.0513: real time    2.0519
       DOS:  cpu time    0.0010: real time    0.0010
    --------------------------------------------
      LOOP:  cpu time    2.0523: real time    2.0530

 eigenvalue-minimisations  :  1120
 total energy-change (2. order) :-0.2694568E+00  (-0.2687509E+00)
 number of electron      96.0000000 magnetization 
 augmentation part       96.0000000 magnetization 

 Free energy of the ion-electron system (eV)
  ---------------------------------------------------
  alpha Z        PSCENC =       153.42368795
  Ewald energy   TEWEN  =     -4856.04789668
  -Hartree energ DENC   =     -1238.12995667
  -exchange      EXHF   =         0.00000000
  -V(xc)+E(xc)   XCENC  =       133.09171549
  PAW double counting   =      4688.19497969    -4454.14273673
  entropy T*S    EENTRO =         0.00030298
  eigenvalues    EBANDS =      -205.83894802
  atomic energy  EATOM  =      5615.46358700
  Solvation  Ediel_sol  =         0.00000000
  ---------------------------------------------------
  free energy    TOTEN  =      -163.98526498 eV

  energy without entropy =     -163.98556797  energy(sigma->0) =     -163.98536598


--------------------------------------------------------------------------------------------------------




--------------------------------------- Iteration      1(   5)  ---------------------------------------


     EDDAV:  cpu time    2.0123: real time    2.0130
       DOS:  cpu time    0.0011: real time    0.0011
    CHARGE:  cpu time    0.1210: real time    0.1210
    MIXING:  cpu time    0.0026: real time    0.0026
    --------------------------------------------
      LOOP:  cpu time    2.1370: real time    2.1377

 eigenvalue-minimisations  :  1096
 total energy-change (2. order) :-0.4575338E-02  (-0.4570145E-02)
 number of electron      96.0000346 magnetization 
 augmentation part        9.3097857 magnetization 

 Broyden mixing:
  rms(total) = 0.24349E+01    rms(broyden)= 0.24340E+01
  rms(prec ) = 0.38163E+01
  weight for this iteration     100.00

 Free energy of the ion-electron system (eV)
  ---------------------------------------------------
  alpha Z        PSCENC =       153.42368795
  Ewald energy   TEWEN  =     -4856.04789668
  -Hartree energ DENC   =     -1238.12995667
  -exchange      EXHF   =         0.00000000
  -V(xc)+E(xc)   XCENC  =       133.09171549
  PAW double counting   =      4688.19497969    -4454.14273673
  entropy T*S    EENTRO =         0.00030300
  eigenvalues    EBANDS =      -205.84352337
  atomic energy  EATOM  =      5615.46358700
  Solvation  Ediel_sol  =         0.00000000
  ---------------------------------------------------
  free energy    TOTEN  =      -163.98984032 eV

  energy without entropy =     -163.99014332  energy(sigma->0) =     -163.98994132


--------------------------------------------------------------------------------------------------------




--------------------------------------- Iteration      1(   6)  ---------------------------------------


    POTLOK:  cpu time    0.0675: real time    0.0679
    SETDIJ:  cpu time    0.0199: real time    0.0199
     EDDAV:  cpu time    1.9176: real time    1.9179
       DOS:  cpu time    0.0011: real time    0.0011
    CHARGE:  cpu time    0.1211: real time    0.1211
    MIXING:  cpu time    0.0029: real time    0.0029
    --------------------------------------------
      LOOP:  cpu time    2.1301: real time    2.1308

 eigenvalue-minimisations  :  1050
 total energy-change (2. order) : 0.1599655E+02  (-0.6828789E+01)
 number of electron      96.0000296 magnetization 
 augmentation part        7.8768352 magnetization 

 Broyden mixing:
  rms(total) = 0.84797E+00    rms(broyden)= 0.84670E+00
  rms(prec ) = 0.10302E+01
  weight for this iteration     100.00

 eigenvalues of (default mixing * dielectric matrix)
  average eigenvalue GAMMA=   0.9584
  0.9584

 Free energy of the ion-electron system (eV)
  ---------------------------------------------------
  alpha Z        PSCENC =       153.42368795
  Ewald energy   TEWEN  =     -4856.04789668
  -Hartree energ DENC   =     -1424.13915358
  -exchange      EXHF   =         0.00000000
  -V(xc)+E(xc)   XCENC  =       146.20932637
  PAW double counting   =      6032.45754466    -5801.95430232
  entropy T*S    EENTRO =         0.00018855
  eigenvalues    EBANDS =       -13.40626869
  atomic energy  EATOM  =      5615.46358700
  Solvation  Ediel_sol  =         0.00000000
  ---------------------------------------------------
  free energy    TOTEN  =      -147.99328675 eV

  energy without entropy =     -147.99347530  energy(sigma->0) =     -147.99334960


--------------------------------------------------------------------------------------------------------




--------------------------------------- Iteration      1(   7)  ---------------------------------------


    POTLOK:  cpu time    0.0669: real time    0.0672
    SETDIJ:  cpu time    0.0199: real time    0.0199
     EDDAV:  cpu time    2.0788: real time    2.0792
       DOS:  cpu time    0.0011: real time    0.0011
    CHARGE:  cpu time    0.1197: real time    0.1197
    MIXING:  cpu time    0.0030: real time    0.0030
    --------------------------------------------
      LOOP:  cpu time    2.2894: real time    2.2901

 eigenvalue-minimisations  :  1168
 total energy-change (2. order) : 0.8239561E-02  (-0.1441086E+00)
 number of electron      96.0000296 magnetization 
 augmentation part        7.7862768 magnetization 

 Broyden mixing:
  rms(total) = 0.46448E+00    rms(broyden)= 0.46439E+00
  rms(prec ) = 0.57623E+00
  weight for this iteration     100.00

 eigenvalues of (default mixing * dielectric matrix)
  average eigenvalue GAMMA=   1.3172
  1.1824  1.4519

 Free energy of the ion-electron system (eV)
  ---------------------------------------------------
  alpha Z        PSCENC =       153.42368795
  Ewald energy   TEWEN  =     -4856.04789668
  -Hartree energ DENC   =     -1440.20324449
  -exchange      EXHF   =         0.00000000
  -V(xc)+E(xc)   XCENC  =       147.58890946
  PAW double counting   =      7051.35073662    -6820.68834602
  entropy T*S    EENTRO =         0.00018857
  eigenvalues    EBANDS =         1.12733040
  atomic energy  EATOM  =      5615.46358700
  Solvation  Ediel_sol  =         0.00000000
  ---------------------------------------------------
  free energy    TOTEN  =      -147.98504719 eV

  energy without entropy =     -147.98523576  energy(sigma->0) =     -147.98511005


--------------------------------------------------------------------------------------------------------




--------------------------------------- Iteration      1(   8)  ---------------------------------------


    POTLOK:  cpu time    0.0646: real time    0.0650
    SETDIJ:  cpu time    0.0199: real time    0.0199
     EDDAV:  cpu time    1.9685: real time    1.9689
       DOS:  cpu time    0.0010: real time    0.0010
    CHARGE:  cpu time    0.1198: real time    0.1199
    MIXING:  cpu time    0.0031: real time    0.0031
    --------------------------------------------
      LOOP:  cpu time    2.1769: real time    2.1777

 eigenvalue-minimisations  :  1085
 total energy-change (2. order) :-0.1004845E-02  (-0.1255098E-01)
 number of electron      96.0000297 magnetization 
 augmentation part        7.8104282 magnetization 

 Broyden mixing:
  rms(total) = 0.12882E+00    rms(broyden)= 0.12881E+00
  rms(prec ) = 0.17243E+00
  weight for this iteration     100.00

 eigenvalues of (default mixing * dielectric matrix)
  average eigenvalue GAMMA=   1.5658
  2.5373  1.0800  1.0800

 Free energy of the ion-electron system (eV)
  ---------------------------------------------------
  alpha Z        PSCENC =       153.42368795
  Ewald energy   TEWEN  =     -4856.04789668
  -Hartree energ DENC   =     -1445.50740670
  -exchange      EXHF   =         0.00000000
  -V(xc)+E(xc)   XCENC  =       148.31638658
  PAW double counting   =      7869.06925959    -7638.20230433
  entropy T*S    EENTRO =         0.00018867
  eigenvalues    EBANDS =         5.49844588
  atomic energy  EATOM  =      5615.46358700
  Solvation  Ediel_sol  =         0.00000000
  ---------------------------------------------------
  free energy    TOTEN  =      -147.98605204 eV

  energy without entropy =     -147.98624071  energy(sigma->0) =     -147.98611493


--------------------------------------------------------------------------------------------------------




--------------------------------------- Iteration      1(   9)  ---------------------------------------


    POTLOK:  cpu time    0.0645: real time    0.0648
    SETDIJ:  cpu time    0.0199: real time    0.0199
     EDDAV:  cpu time    2.0307: real time    2.0311
       DOS:  cpu time    0.0010: real time    0.0010
    CHARGE:  cpu time    0.1190: real time    0.1190
    MIXING:  cpu time    0.0032: real time    0.0032
    --------------------------------------------
      LOOP:  cpu time    2.2383: real time    2.2390

 eigenvalue-minimisations  :  1120
 total energy-change (2. order) :-0.1077958E-01  (-0.3296408E-02)
 number of electron      96.0000296 magnetization 
 augmentation part        7.7937540 magnetization 

 Broyden mixing:
  rms(total) = 0.37295E-01    rms(broyden)= 0.37290E-01
  rms(prec ) = 0.39251E-01
  weight for this iteration     100.00

 eigenvalues of (default mixing * dielectric matrix)
  average eigenvalue GAMMA=   1.7821
  1.0264  1.0264  2.5377  2.5377

 Free energy of the ion-electron system (eV)
  ---------------------------------------------------
  alpha Z        PSCENC =       153.42368795
  Ewald energy   TEWEN  =     -4856.04789668
  -Hartree energ DENC   =     -1452.30673708
  -exchange      EXHF   =         0.00000000
  -V(xc)+E(xc)   XCENC  =       148.98470716
  PAW double counting   =      8166.77836248    -7935.91813249
  entropy T*S    EENTRO =         0.00018872
  eigenvalues    EBANDS =        11.62540133
  atomic energy  EATOM  =      5615.46358700
  Solvation  Ediel_sol  =         0.00000000
  ---------------------------------------------------
  free energy    TOTEN  =      -147.99683161 eV

  energy without entropy =     -147.99702033  energy(sigma->0) =     -147.99689452


--------------------------------------------------------------------------------------------------------




--------------------------------------- Iteration      1(  10)  ---------------------------------------


    POTLOK:  cpu time    0.0640: real time    0.0644
    SETDIJ:  cpu time    0.0199: real time    0.0199
     EDDAV:  cpu time    1.9958: real time    1.9964
       DOS:  cpu time    0.0011: real time    0.0011
    CHARGE:  cpu time    0.1205: real time    0.1205
    MIXING:  cpu time    0.0036: real time    0.0036
    --------------------------------------------
      LOOP:  cpu time    2.2050: real time    2.2060

 eigenvalue-minimisations  :  1109
 total energy-change (2. order) :-0.1484408E-02  (-0.4918709E-03)
 number of electron      96.0000296 magnetization 
 augmentation part        7.7883537 magnetization 

 Broyden mixing:
  rms(total) = 0.13269E-01    rms(broyden)= 0.13259E-01
  rms(prec ) = 0.18553E-01
  weight for this iteration     100.00

 eigenvalues of (default mixing * dielectric matrix)
  average eigenvalue GAMMA=   1.5452
  2.6581  2.3596  1.0107  1.0107  0.6870

 Free energy of the ion-electron system (eV)
  ---------------------------------------------------
  alpha Z        PSCENC =       153.42368795
  Ewald energy   TEWEN  =     -4856.04789668
  -Hartree energ DENC   =     -1452.95591748
  -exchange      EXHF   =         0.00000000
  -V(xc)+E(xc)   XCENC  =       149.04566150
  PAW double counting   =      8048.34767170    -7817.51183089
  entropy T*S    EENTRO =         0.00018873
  eigenvalues    EBANDS =        12.23653213
  atomic energy  EATOM  =      5615.46358700
  Solvation  Ediel_sol  =         0.00000000
  ---------------------------------------------------
  free energy    TOTEN  =      -147.99831602 eV

  energy without entropy =     -147.99850475  energy(sigma->0) =     -147.99837893


--------------------------------------------------------------------------------------------------------




--------------------------------------- Iteration      1(  11)  ---------------------------------------


    POTLOK:  cpu time    0.0668: real time    0.0671
    SETDIJ:  cpu time    0.0198: real time    0.0199
     EDDAV:  cpu time    2.0369: real time    2.0372
       DOS:  cpu time    0.0010: real time    0.0010
    CHARGE:  cpu time    0.1198: real time    0.1198
    MIXING:  cpu time    0.0035: real time    0.0035
    --------------------------------------------
      LOOP:  cpu time    2.2479: real time    2.2486

 eigenvalue-minimisations  :  1120
 total energy-change (2. order) : 0.2531834E-03  (-0.9481851E-04)
 number of electron      96.0000296 magnetization 
 augmentation part        7.7920596 magnetization 

 Broyden mixing:
  rms(total) = 0.86227E-02    rms(broyden)= 0.86216E-02
  rms(prec ) = 0.10277E-01
  weight for this iteration     100.00

 eigenvalues of (default mixing * dielectric matrix)
  average eigenvalue GAMMA=   1.5665
  2.8044  2.4673  1.0211  1.0211  1.0427  1.0427

 Free energy of the ion-electron system (eV)
  ---------------------------------------------------
  alpha Z        PSCENC =       153.42368795
  Ewald energy   TEWEN  =     -4856.04789668
  -Hartree energ DENC   =     -1452.63639695
  -exchange      EXHF   =         0.00000000
  -V(xc)+E(xc)   XCENC  =       149.02433211
  PAW double counting   =      8051.34944339    -7820.50465484
  entropy T*S    EENTRO =         0.00018873
  eigenvalues    EBANDS =        11.92964646
  atomic energy  EATOM  =      5615.46358700
  Solvation  Ediel_sol  =         0.00000000
  ---------------------------------------------------
  free energy    TOTEN  =      -147.99806284 eV

  energy without entropy =     -147.99825156  energy(sigma->0) =     -147.99812575


--------------------------------------------------------------------------------------------------------




--------------------------------------- Iteration      1(  12)  ---------------------------------------


    POTLOK:  cpu time    0.0648: real time    0.0651
    SETDIJ:  cpu time    0.0198: real time    0.0198
     EDDAV:  cpu time    2.0290: real time    2.0293
       DOS:  cpu time    0.0011: real time    0.0011
    CHARGE:  cpu time    0.1185: real time    0.1185
    MIXING:  cpu time    0.0036: real time    0.0036
    --------------------------------------------
      LOOP:  cpu time    2.2367: real time    2.2373

 eigenvalue-minimisations  :  1120
 total energy-change (2. order) :-0.1142477E-04  (-0.5332391E-04)
 number of electron      96.0000296 magnetization 
 augmentation part        7.7926317 magnetization 

 Broyden mixing:
  rms(total) = 0.24014E-02    rms(broyden)= 0.23932E-02
  rms(prec ) = 0.33696E-02
  weight for this iteration     100.00

 eigenvalues of (default mixing * dielectric matrix)
  average eigenvalue GAMMA=   1.5308
  2.8475  2.4518  1.2796  1.0627  1.0627  1.0057  1.0057

 Free energy of the ion-electron system (eV)
  ---------------------------------------------------
  alpha Z        PSCENC =       153.42368795
  Ewald energy   TEWEN  =     -4856.04789668
  -Hartree energ DENC   =     -1452.61389848
  -exchange      EXHF   =         0.00000000
  -V(xc)+E(xc)   XCENC  =       149.02371336
  PAW double counting   =      8030.78860813    -7799.94630862
  entropy T*S    EENTRO =         0.00018872
  eigenvalues    EBANDS =        11.91024436
  atomic energy  EATOM  =      5615.46358700
  Solvation  Ediel_sol  =         0.00000000
  ---------------------------------------------------
  free energy    TOTEN  =      -147.99807426 eV

  energy without entropy =     -147.99826298  energy(sigma->0) =     -147.99813717


--------------------------------------------------------------------------------------------------------




--------------------------------------- Iteration      1(  13)  ---------------------------------------


    POTLOK:  cpu time    0.0646: real time    0.0650
    SETDIJ:  cpu time    0.0197: real time    0.0197
     EDDAV:  cpu time    2.0105: real time    2.0108
       DOS:  cpu time    0.0010: real time    0.0010
    CHARGE:  cpu time    0.1193: real time    0.1193
    MIXING:  cpu time    0.0039: real time    0.0039
    --------------------------------------------
      LOOP:  cpu time    2.2190: real time    2.2197

 eigenvalue-minimisations  :  1120
 total energy-change (2. order) : 0.6883434E-05  (-0.9640310E-05)
 number of electron      96.0000296 magnetization 
 augmentation part        7.7939342 magnetization 

 Broyden mixing:
  rms(total) = 0.10938E-02    rms(broyden)= 0.10922E-02
  rms(prec ) = 0.14390E-02
  weight for this iteration     100.00

 eigenvalues of (default mixing * dielectric matrix)
  average eigenvalue GAMMA=   1.5097
  2.8413  2.4292  1.8388  1.0394  1.0394  0.8737  1.0079  1.0079

 Free energy of the ion-electron system (eV)
  ---------------------------------------------------
  alpha Z        PSCENC =       153.42368795
  Ewald energy   TEWEN  =     -4856.04789668
  -Hartree energ DENC   =     -1452.45625595
  -exchange      EXHF   =         0.00000000
  -V(xc)+E(xc)   XCENC  =       149.01248197
  PAW double counting   =      8029.55622994    -7798.70944627
  entropy T*S    EENTRO =         0.00018872
  eigenvalues    EBANDS =        11.75935593
  atomic energy  EATOM  =      5615.46358700
  Solvation  Ediel_sol  =         0.00000000
  ---------------------------------------------------
  free energy    TOTEN  =      -147.99806738 eV

  energy without entropy =     -147.99825610  energy(sigma->0) =     -147.99813029


--------------------------------------------------------------------------------------------------------




--------------------------------------- Iteration      1(  14)  ---------------------------------------


    POTLOK:  cpu time    0.0648: real time    0.0651
    SETDIJ:  cpu time    0.0198: real time    0.0198
     EDDAV:  cpu time    2.0353: real time    2.0356
       DOS:  cpu time    0.0012: real time    0.0012
    CHARGE:  cpu time    0.1199: real time    0.1199
    MIXING:  cpu time    0.0041: real time    0.0041
    --------------------------------------------
      LOOP:  cpu time    2.2450: real time    2.2457

 eigenvalue-minimisations  :  1120
 total energy-change (2. order) : 0.1296176E-05  (-0.1333450E-05)
 number of electron      96.0000296 magnetization 
 augmentation part        7.7935097 magnetization 

 Broyden mixing:
  rms(total) = 0.36952E-03    rms(broyden)= 0.36898E-03
  rms(prec ) = 0.44609E-03
  weight for this iteration     100.00

 eigenvalues of (default mixing * dielectric matrix)
  average eigenvalue GAMMA=   1.5308
  2.9172  2.5418  2.2170  0.9721  1.0640  1.0483  1.0483  0.9843  0.9843

 Free energy of the ion-electron system (eV)
  ---------------------------------------------------
  alpha Z        PSCENC =       153.42368795
  Ewald energy   TEWEN  =     -4856.04789668
  -Hartree energ DENC   =     -1452.50658003
  -exchange      EXHF   =         0.00000000
  -V(xc)+E(xc)   XCENC  =       149.01542894
  PAW double counting   =      8028.73354625    -7797.88745026
  entropy T*S    EENTRO =         0.00018872
  eigenvalues    EBANDS =        11.80742202
  atomic energy  EATOM  =      5615.46358700
  Solvation  Ediel_sol  =         0.00000000
  ---------------------------------------------------
  free energy    TOTEN  =      -147.99806608 eV

  energy without entropy =     -147.99825481  energy(sigma->0) =     -147.99812899


--------------------------------------------------------------------------------------------------------




--------------------------------------- Iteration      1(  15)  ---------------------------------------


    POTLOK:  cpu time    0.0649: real time    0.0652
    SETDIJ:  cpu time    0.0198: real time    0.0198
     EDDAV:  cpu time    1.4202: real time    1.4205
       DOS:  cpu time    0.0010: real time    0.0010
    --------------------------------------------
      LOOP:  cpu time    1.5059: real time    1.5065

 eigenvalue-minimisations  :   680
 total energy-change (2. order) : 0.8595634E-07  (-0.3822681E-07)
 number of electron      96.0000296 magnetization 
 augmentation part        7.7935097 magnetization 

 Free energy of the ion-electron system (eV)
  ---------------------------------------------------
  alpha Z        PSCENC =       153.42368795
  Ewald energy   TEWEN  =     -4856.04789668
  -Hartree energ DENC   =     -1452.51463202
  -exchange      EXHF   =         0.00000000
  -V(xc)+E(xc)   XCENC  =       149.01571282
  PAW double counting   =      8027.87161394    -7797.02528543
  entropy T*S    EENTRO =         0.00018872
  eigenvalues    EBANDS =        11.81495770
  atomic energy  EATOM  =      5615.46358700
  Solvation  Ediel_sol  =         0.00000000
  ---------------------------------------------------
  free energy    TOTEN  =      -147.99806600 eV

  energy without entropy =     -147.99825472  energy(sigma->0) =     -147.99812890


--------------------------------------------------------------------------------------------------------




 average (electrostatic) potential at core
  the test charge radii are     1.0406  0.7215
  (the norm of the test charge is              1.0000)
       1 -71.3293       2 -71.3293       3 -71.3293       4 -71.3293       5 -71.3293
       6 -71.3293       7 -71.3293       8 -71.3293       9 -66.8464      10 -66.8464
      11 -66.8464      12 -66.8464      13 -66.8464      14 -66.8464      15 -66.8464
      16 -66.8464      17 -66.7166      18 -66.7166      19 -66.7166      20 -66.7166
 
 
 
 E-fermi :   6.4898     XC(G=0): -11.8106     alpha+bet :-17.0082


 k-point     1 :       0.1250    0.1250    0.1250
  band No.  band energies     occupation 
      1     -12.6752      2.00000
      2     -11.6832      2.00000
      3     -10.8420      2.00000
      4     -10.7934      2.00000
      5     -10.7344      2.00000
      6     -10.3839      2.00000
      7     -10.2127      2.00000
      8     -10.0520      2.00000
      9     -10.0088      2.00000
     10      -9.9488      2.00000
     11      -9.8279      2.00000
     12      -9.6162      2.00000
     13       0.1475      2.00000
     14       0.3336      2.00000
     15       0.3942      2.00000
     16       0.5360      2.00000
     17       1.0741      2.00000
     18       1.1902      2.00000
     19       1.2261      2.00000
     20       1.5163      2.00000
     21       1.7016      2.00000
     22       2.0745      2.00000
     23       2.1500      2.00000
     24       2.3810      2.00000
     25       2.4258      2.00000
     26       2.8287      2.00000
     27       3.4102      2.00000
     28       3.6247      2.00000
     29       3.8283      2.00000
     30       4.1333      2.00000
     31       4.1855      2.00000
     32       4.4590      2.00000
     33       4.5017      2.00000
     34       4.8155      2.00000
     35       5.0024      2.00000
     36       5.1823      2.00000
     37       5.2971      2.00000
     38       5.3001      2.00000
     39       5.4149      2.00000
     40       5.5824      2.00000
     41       5.6861      2.00000
     42       5.7582      2.00000
     43       5.8314      2.00000
     44       5.9931      2.00000
     45       6.0949      2.00000
     46       6.1707      2.00000
     47       6.3297      2.00000
     48       6.4679      1.99997
     49      12.6471      0.00000
     50      15.0515      0.00000
     51      15.2340      0.00000
     52      15.5868      0.00000
     53      15.8143      0.00000
     54      16.4406      0.00000
     55      16.6715      0.00000
     56      16.7655      0.00000
     57      17.0646      0.00000
     58      17.2667      0.00000
     59      17.5224      0.00000

 k-point     2 :       0.3750    0.1250    0.1250
  band No.  band energies     occupation 
      1     -12.2557      2.00000
      2     -11.5666      2.00000
      3     -11.3074      2.00000
      4     -10.8894      2.00000
      5     -10.5851      2.00000
      6     -10.4763      2.00000
      7     -10.3122      2.00000
      8     -10.1715      2.00000
      9     -10.1044      2.00000
     10      -9.9439      2.00000
     11      -9.7546      2.00000
     12      -9.6383      2.00000
     13       0.1018      2.00000
     14       0.3562      2.00000
     15       0.4692      2.00000
     16       0.7453      2.00000
     17       0.8361      2.00000
     18       1.1332      2.00000
     19       1.2903      2.00000
     20       1.3388      2.00000
     21       1.6740      2.00000
     22       2.2307      2.00000
     23       2.4252      2.00000
     24       2.6934      2.00000
     25       2.7936      2.00000
     26       3.2577      2.00000
     27       3.6183      2.00000
     28       3.7623      2.00000
     29       4.0392      2.00000
     30       4.0675      2.00000
     31       4.1637      2.00000
     32       4.3050      2.00000
     33       4.4759      2.00000
     34       4.7187      2.00000
     35       4.8233      2.00000
     36       5.0058      2.00000
     37       5.0977      2.00000
     38       5.2633      2.00000
     39       5.3491      2.00000
     40       5.5056      2.00000
     41       5.6710      2.00000
     42       5.7425      2.00000
     43       5.8260      2.00000
     44       5.8547      2.00000
     45       6.0003      2.00000
     46       6.0125      2.00000
     47       6.3721      2.00000
     48       6.3840      2.00000
     49      13.9628      0.00000
     50      14.9402      0.00000
     51      15.0302      0.00000
     52      15.3895      0.00000
     53      15.5778      0.00000
     54      15.9526      0.00000
     55      16.2630      0.00000
     56      16.7467      0.00000
     57      16.9529      0.00000
     58      17.0714      0.00000
     59      17.1232      0.00000

 k-point     3 :       0.1250    0.3750    0.1250
  band No.  band energies     occupation 
      1     -12.2732      2.00000
      2     -11.5746      2.00000
      3     -11.3421      2.00000
      4     -10.7990      2.00000
      5     -10.5812      2.00000
      6     -10.5169      2.00000
      7     -10.3147      2.00000
      8     -10.2359      2.00000
      9      -9.9985      2.00000
     10      -9.8600      2.00000
     11      -9.8260      2.00000
     12      -9.7288      2.00000
     13       0.2613      2.00000
     14       0.4334      2.00000
     15       0.5877      2.00000
     16       0.8559      2.00000
     17       0.9764      2.00000
     18       1.3232      2.00000
     19       1.5400      2.00000
     20       1.8206      2.00000
     21       2.0338      2.00000
     22       2.2273      2.00000
     23       2.2962      2.00000
     24       2.6358      2.00000
     25       2.8191      2.00000
     26       3.0870      2.00000
     27       3.3283      2.00000
     28       3.4008      2.00000
     29       3.7582      2.00000
     30       3.7997      2.00000
     31       3.9383      2.00000
     32       4.0530      2.00000
     33       4.4526      2.00000
     34       4.6172      2.00000
     35       4.7995      2.00000
     36       4.9371      2.00000
     37       4.9885      2.00000
     38       5.1655      2.00000
     39       5.2393      2.00000
     40       5.3619      2.00000
     41       5.4755      2.00000
     42       5.5427      2.00000
     43       5.7496      2.00000
     44       5.8930      2.00000
     45       6.1255      2.00000
     46       6.2217      2.00000
     47       6.3509      2.00000
     48       6.4043      2.00003
     49      13.9586      0.00000
     50      15.1241      0.00000
     51      15.4455      0.00000
     52      15.5292      0.00000
     53      15.6010      0.00000
     54      15.7908      0.00000
     55      16.4045      0.00000
     56      16.7490      0.00000
     57      17.2100      0.00000
     58      17.3919      0.00000
     59      17.5568      0.00000

 k-point     4 :       0.3750    0.3750    0.1250
  band No.  band energies     occupation 
      1     -11.8874      2.00000
      2     -11.2715      2.00000
      3     -11.2645      2.00000
      4     -11.0680      2.00000
      5     -10.6592      2.00000
      6     -10.5669      2.00000
      7     -10.5169      2.00000
      8     -10.4537      2.00000
      9     -10.0008      2.00000
     10      -9.9528      2.00000
     11      -9.9150      2.00000
     12      -9.7814      2.00000
     13       0.4823      2.00000
     14       0.5522      2.00000
     15       0.6429      2.00000
     16       0.8564      2.00000
     17       1.1627      2.00000
     18       1.4001      2.00000
     19       1.6599      2.00000
     20       1.8328      2.00000
     21       2.0449      2.00000
     22       2.2553      2.00000
     23       2.3649      2.00000
     24       2.8205      2.00000
     25       3.0040      2.00000
     26       3.0872      2.00000
     27       3.3015      2.00000
     28       3.4945      2.00000
     29       3.6029      2.00000
     30       3.8023      2.00000
     31       3.9847      2.00000
     32       4.1937      2.00000
     33       4.4239      2.00000
     34       4.5292      2.00000
     35       4.8575      2.00000
     36       4.8728      2.00000
     37       4.9624      2.00000
     38       5.0949      2.00000
     39       5.2268      2.00000
     40       5.3541      2.00000
     41       5.3787      2.00000
     42       5.5773      2.00000
     43       5.6512      2.00000
     44       5.7416      2.00000
     45       5.9605      2.00000
     46       6.1549      2.00000
     47       6.2869      2.00000
     48       6.3501      2.00000
     49      14.8059      0.00000
     50      15.1813      0.00000
     51      15.3195      0.00000
     52      15.4916      0.00000
     53      15.8459      0.00000
     54      16.0023      0.00000
     55      16.1960      0.00000
     56      16.3627      0.00000
     57      16.7519      0.00000
     58      16.9317      0.00000
     59      17.0947      0.00000

 k-point     5 :       0.1250    0.1250    0.3750
  band No.  band energies     occupation 
      1     -12.4765      2.00000
      2     -12.1112      2.00000
      3     -10.7568      2.00000
      4     -10.6752      2.00000
      5     -10.5251      2.00000
      6     -10.4098      2.00000
      7     -10.3645      2.00000
      8     -10.0685      2.00000
      9      -9.9528      2.00000
     10      -9.8797      2.00000
     11      -9.8439      2.00000
     12      -9.6986      2.00000
     13       0.1128      2.00000
     14       0.2415      2.00000
     15       0.4786      2.00000
     16       0.5955      2.00000
     17       0.7768      2.00000
     18       0.8474      2.00000
     19       1.3486      2.00000
     20       1.4396      2.00000
     21       1.8276      2.00000
     22       1.9293      2.00000
     23       2.2545      2.00000
     24       2.5755      2.00000
     25       2.8528      2.00000
     26       3.2229      2.00000
     27       3.5212      2.00000
     28       3.5969      2.00000
     29       3.8257      2.00000
     30       4.0844      2.00000
     31       4.1050      2.00000
     32       4.2954      2.00000
     33       4.5357      2.00000
     34       4.8668      2.00000
     35       4.9964      2.00000
     36       5.1313      2.00000
     37       5.1668      2.00000
     38       5.2497      2.00000
     39       5.2981      2.00000
     40       5.4443      2.00000
     41       5.5790      2.00000
     42       5.6631      2.00000
     43       5.8242      2.00000
     44       6.0210      2.00000
     45       6.1719      2.00000
     46       6.2556      2.00000
     47       6.3707      2.00000
     48       6.3844      2.00000
     49      13.3441      0.00000
     50      14.3041      0.00000
     51      15.6539      0.00000
     52      16.0606      0.00000
     53      16.0936      0.00000
     54      16.3174      0.00000
     55      16.5141      0.00000
     56      16.6992      0.00000
     57      16.8388      0.00000
     58      16.9973      0.00000
     59      17.3855      0.00000

 k-point     6 :       0.3750    0.1250    0.3750
  band No.  band energies     occupation 
      1     -12.0755      2.00000
      2     -11.7575      2.00000
      3     -11.3451      2.00000
      4     -11.1081      2.00000
      5     -10.4894      2.00000
      6     -10.4026      2.00000
      7     -10.3078      2.00000
      8     -10.1791      2.00000
      9      -9.9913      2.00000
     10      -9.8563      2.00000
     11      -9.7900      2.00000
     12      -9.6735      2.00000
     13       0.0218      2.00000
     14       0.1708      2.00000
     15       0.2694      2.00000
     16       0.3082      2.00000
     17       1.0407      2.00000
     18       1.3170      2.00000
     19       1.4336      2.00000
     20       1.5235      2.00000
     21       1.9785      2.00000
     22       2.3049      2.00000
     23       2.5641      2.00000
     24       2.8443      2.00000
     25       2.9869      2.00000
     26       3.1362      2.00000
     27       3.3058      2.00000
     28       3.7236      2.00000
     29       3.9626      2.00000
     30       3.9727      2.00000
     31       4.1518      2.00000
     32       4.3930      2.00000
     33       4.5062      2.00000
     34       4.7139      2.00000
     35       4.7879      2.00000
     36       4.9456      2.00000
     37       5.0442      2.00000
     38       5.2274      2.00000
     39       5.2756      2.00000
     40       5.3891      2.00000
     41       5.5614      2.00000
     42       5.7082      2.00000
     43       5.9086      2.00000
     44       5.9663      2.00000
     45       6.1135      2.00000
     46       6.1748      2.00000
     47       6.2719      2.00000
     48       6.3009      2.00000
     49      14.3880      0.00000
     50      14.8296      0.00000
     51      15.3579      0.00000
     52      15.5193      0.00000
     53      15.6225      0.00000
     54      16.0490      0.00000
     55      16.2861      0.00000
     56      16.4990      0.00000
     57      16.7482      0.00000
     58      16.8975      0.00000
     59      17.1682      0.00000

 k-point     7 :       0.1250    0.3750    0.3750
  band No.  band energies     occupation 
      1     -12.0873      2.00000
      2     -11.7448      2.00000
      3     -11.4186      2.00000
      4     -11.1334      2.00000
      5     -10.4327      2.00000
      6     -10.2794      2.00000
      7     -10.2363      2.00000
      8     -10.1605      2.00000
      9      -9.9619      2.00000
     10      -9.9252      2.00000
     11      -9.8904      2.00000
     12      -9.7567      2.00000
     13       0.2883      2.00000
     14       0.3654      2.00000
     15       0.5852      2.00000
     16       0.6083      2.00000
     17       1.0981      2.00000
     18       1.3728      2.00000
     19       1.4114      2.00000
     20       1.7459      2.00000
     21       1.9322      2.00000
     22       2.0734      2.00000
     23       2.4655      2.00000
     24       2.6684      2.00000
     25       2.7995      2.00000
     26       3.2292      2.00000
     27       3.4774      2.00000
     28       3.5513      2.00000
     29       3.7691      2.00000
     30       3.8718      2.00000
     31       4.1898      2.00000
     32       4.3572      2.00000
     33       4.4495      2.00000
     34       4.5027      2.00000
     35       4.6293      2.00000
     36       4.8631      2.00000
     37       4.9946      2.00000
     38       5.1556      2.00000
     39       5.2074      2.00000
     40       5.2840      2.00000
     41       5.5206      2.00000
     42       5.5844      2.00000
     43       5.7181      2.00000
     44       5.7856      2.00000
     45       6.1062      2.00000
     46       6.1656      2.00000
     47       6.2759      2.00000
     48       6.3333      2.00000
     49      14.3351      0.00000
     50      14.9289      0.00000
     51      15.4312      0.00000
     52      15.5132      0.00000
     53      15.7979      0.00000
     54      16.1242      0.00000
     55      16.3510      0.00000
     56      16.7276      0.00000
     57      16.8615      0.00000
     58      16.9396      0.00000
     59      17.2631      0.00000

 k-point     8 :       0.3750    0.3750    0.3750
  band No.  band energies     occupation 
      1     -11.7215      2.00000
      2     -11.4319      2.00000
      3     -11.1627      2.00000
      4     -11.1195      2.00000
      5     -10.7894      2.00000
      6     -10.7503      2.00000
      7     -10.5640      2.00000
      8     -10.4258      2.00000
      9      -9.9444      2.00000
     10      -9.8844      2.00000
     11      -9.7946      2.00000
     12      -9.7170      2.00000
     13       0.4071      2.00000
     14       0.4416      2.00000
     15       0.6350      2.00000
     16       0.6887      2.00000
     17       1.2945      2.00000
     18       1.4920      2.00000
     19       1.4985      2.00000
     20       1.8332      2.00000
     21       2.1781      2.00000
     22       2.2709      2.00000
     23       2.5841      2.00000
     24       2.6322      2.00000
     25       2.7978      2.00000
     26       3.0146      2.00000
     27       3.3218      2.00000
     28       3.3667      2.00000
     29       3.9390      2.00000
     30       3.9806      2.00000
     31       4.1007      2.00000
     32       4.2883      2.00000
     33       4.5641      2.00000
     34       4.6041      2.00000
     35       4.8195      2.00000
     36       4.8366      2.00000
     37       4.8901      2.00000
     38       5.0829      2.00000
     39       5.1242      2.00000
     40       5.3126      2.00000
     41       5.4730      2.00000
     42       5.5594      2.00000
     43       5.7609      2.00000
     44       5.8196      2.00000
     45       5.8978      2.00000
     46       6.0799      2.00000
     47       6.1440      2.00000
     48       6.2166      2.00000
     49      15.0098      0.00000
     50      15.2315      0.00000
     51      15.3538      0.00000
     52      15.4348      0.00000
     53      15.7342      0.00000
     54      15.8113      0.00000
     55      16.3626      0.00000
     56      16.4846      0.00000
     57      16.6755      0.00000
     58      16.7226      0.00000
     59      16.9677      0.00000


--------------------------------------------------------------------------------------------------------


 soft charge-density along one line, spin component           1
         0         1         2         3         4         5         6         7         8         9
 total charge-density along one line
 
 pseudopotential strength for first ion, spin component:           1
  8.382  14.284   0.002  -0.001  -0.000   0.008  -0.003  -0.000
 14.284  24.341   0.004  -0.002  -0.000   0.013  -0.005  -0.000
  0.002   0.004   1.981  -0.000   0.000   5.705  -0.001   0.001
 -0.001  -0.002  -0.000   1.981  -0.000  -0.001   5.705  -0.001
 -0.000  -0.000   0.000  -0.000   1.981   0.001  -0.001   5.705
  0.008   0.013   5.705  -0.001   0.001  16.346  -0.001   0.002
 -0.003  -0.005  -0.001   5.705  -0.001  -0.001  16.346  -0.002
 -0.000  -0.000   0.001  -0.001   5.705   0.002  -0.002  16.345
 total augmentation occupancy for first ion, spin component:           1
  5.174  -1.861  -0.187   0.110   0.012   0.027  -0.019  -0.002
 -1.861   0.705   0.062  -0.057  -0.005  -0.009   0.009   0.001
 -0.187   0.062   1.528   0.052  -0.075  -0.147  -0.007   0.010
  0.110  -0.057   0.052   1.426   0.093  -0.007  -0.137  -0.011
  0.012  -0.005  -0.075   0.093   1.580   0.010  -0.011  -0.154
  0.027  -0.009  -0.147  -0.007   0.010   0.015   0.001  -0.001
 -0.019   0.009  -0.007  -0.137  -0.011   0.001   0.014   0.001
 -0.002   0.001   0.010  -0.011  -0.154  -0.001   0.001   0.016


------------------------ aborting loop because EDIFF is reached ----------------------------------------


    CHARGE:  cpu time    0.1194: real time    0.1194
    FORLOC:  cpu time    0.0195: real time    0.0195
    FORNL :  cpu time    0.5766: real time    0.5767
    STRESS:  cpu time    1.7436: real time    1.7438
    FORCOR:  cpu time    0.0875: real time    0.0875
    FORHAR:  cpu time    0.0307: real time    0.0307
    MIXING:  cpu time    0.0049: real time    0.0049
    OFIELD:  cpu time    0.0000: real time    0.0000

  FORCE on cell =-STRESS in cart. coord.  units (eV):
  Direction    XX          YY          ZZ          XY          YZ          ZX
  --------------------------------------------------------------------------------------
  Alpha Z   153.42369   153.42369   153.42369
  Ewald   -1575.49200 -1622.84322 -1657.72512    -0.00000     0.00000    -0.00000
  Hartree   487.69878   477.03079   487.79355     0.00000     0.00000    -0.00000
  E(xc)    -443.52159  -443.41927  -442.96562     0.00000    -0.00000    -0.00000
  Local    -274.69388  -218.75724  -200.59861    -0.00000    -0.00001     0.00000
  n-local  -175.87392  -177.79067  -183.56613     0.12845     0.11454     0.06729
  augment    76.06902    76.25264    77.03938     0.00000    -0.00000    -0.00000
  Kinetic  1749.76193  1753.57369  1764.18337    -0.47661    -0.65060    -0.23992
  Fock        0.00000     0.00000     0.00000     0.00000     0.00000     0.00000
  -------------------------------------------------------------------------------------
  Total      -2.62798    -2.52959    -2.41549     0.00000     0.00000     0.00000
  in kB     -25.01949   -24.08278   -22.99651     0.00000     0.00000     0.00000
  external pressure =      -24.03 kB  Pullay stress =        0.00 kB


 VOLUME and BASIS-vectors are now :
 -----------------------------------------------------------------------------
  energy-cutoff  :      400.00
  volume of cell :      168.29
      direct lattice vectors                 reciprocal lattice vectors
     4.819359393  0.000000000  0.000000000     0.207496457  0.000000000  0.000000000
     0.000000000  4.956429365  0.000000000     0.000000000  0.201758146  0.000000000
     0.000000000  0.000000000  7.045235195     0.000000000  0.000000000  0.141939903

  length of vectors
     4.819359393  4.956429365  7.045235195     0.207496457  0.201758146  0.141939903


 FORCES acting on ions
    electron-ion (+dipol)            ewald-force                    non-local-force                 convergence-correction
 -----------------------------------------------------------------------------------------------
   0.336E+01 -.296E+01 0.164E+02   -.326E+01 0.700E+00 -.156E+02   -.980E-01 0.224E+01 -.767E+00   0.125E-03 -.214E-04 0.140E-03
   0.336E+01 0.296E+01 -.164E+02   -.326E+01 -.700E+00 0.156E+02   -.980E-01 -.224E+01 0.767E+00   0.125E-03 0.214E-04 -.140E-03
   -.336E+01 -.296E+01 -.164E+02   0.326E+01 0.700E+00 0.156E+02   0.980E-01 0.224E+01 0.767E+00   -.125E-03 -.215E-04 -.141E-03
   -.336E+01 0.296E+01 0.164E+02   0.326E+01 -.700E+00 -.156E+02   0.980E-01 -.224E+01 -.767E+00   -.125E-03 0.215E-04 0.140E-03
   -.336E+01 0.296E+01 -.164E+02   0.326E+01 -.700E+00 0.156E+02   0.980E-01 -.224E+01 0.767E+00   -.125E-03 0.215E-04 -.140E-03
   -.336E+01 -.296E+01 0.164E+02   0.326E+01 0.700E+00 -.156E+02   0.980E-01 0.224E+01 -.767E+00   -.125E-03 -.215E-04 0.140E-03
   0.336E+01 0.296E+01 0.164E+02   -.326E+01 -.700E+00 -.156E+02   -.980E-01 -.224E+01 -.767E+00   0.125E-03 0.214E-04 0.140E-03
   0.336E+01 -.296E+01 -.164E+02   -.326E+01 0.700E+00 0.156E+02   -.980E-01 0.224E+01 0.767E+00   0.125E-03 -.214E-04 -.141E-03
   0.670E+01 0.327E+01 -.184E+02   -.542E+01 -.258E+01 0.193E+02   -.129E+01 -.703E+00 -.975E+00   -.143E-03 0.266E-04 -.714E-03
   0.670E+01 -.327E+01 0.184E+02   -.542E+01 0.258E+01 -.193E+02   -.129E+01 0.703E+00 0.975E+00   -.143E-03 -.267E-04 0.715E-03
   -.670E+01 0.327E+01 0.184E+02   0.542E+01 -.258E+01 -.193E+02   0.129E+01 -.703E+00 0.975E+00   0.143E-03 0.264E-04 0.715E-03
   -.670E+01 -.327E+01 -.184E+02   0.542E+01 0.258E+01 0.193E+02   0.129E+01 0.703E+00 -.975E+00   0.143E-03 -.264E-04 -.716E-03
   -.670E+01 -.327E+01 0.184E+02   0.542E+01 0.258E+01 -.193E+02   0.129E+01 0.703E+00 0.975E+00   0.143E-03 -.264E-04 0.715E-03
   -.670E+01 0.327E+01 -.184E+02   0.542E+01 -.258E+01 0.193E+02   0.129E+01 -.703E+00 -.975E+00   0.143E-03 0.264E-04 -.714E-03
   0.670E+01 -.327E+01 -.184E+02   -.542E+01 0.258E+01 0.193E+02   -.129E+01 0.703E+00 -.975E+00   -.143E-03 -.267E-04 -.716E-03
   0.670E+01 0.327E+01 0.184E+02   -.542E+01 -.258E+01 -.193E+02   -.129E+01 -.703E+00 0.975E+00   -.143E-03 0.266E-04 0.715E-03
   -.199E+02 -.856E-05 -.614E-04   0.208E+02 -.927E-07 0.690E-05   -.910E+00 0.390E-17 0.173E-17   -.249E-03 -.174E-07 -.477E-06
   0.199E+02 -.105E-04 -.926E-04   -.208E+02 -.128E-05 -.156E-04   0.910E+00 -.173E-17 -.347E-17   0.249E-03 0.156E-07 0.501E-06
   0.199E+02 -.132E-04 -.952E-04   -.208E+02 -.306E-05 0.877E-05   0.910E+00 -.217E-17 -.173E-17   0.249E-03 0.157E-07 -.485E-06
   -.199E+02 -.163E-04 -.593E-04   0.208E+02 0.168E-05 -.137E-04   -.910E+00 0.173E-17 0.000E+00   -.249E-03 -.174E-07 0.494E-06
 -----------------------------------------------------------------------------------------------
   0.102E-02 -.760E-04 -.636E-03   -.284E-13 -.553E-14 -.284E-13   0.000E+00 0.224E-15 -.114E-15   0.130E-07 -.548E-09 -.226E-08
 
 
 POSITION                                       TOTAL-FORCE (eV/Angst)
 -----------------------------------------------------------------------------------
      1.21593      0.15561      2.74756         0.003560     -0.019114      0.012622
      1.21593      2.32260      4.29767         0.003560      0.019114     -0.012622
      1.19375      2.63383      0.77506        -0.003560     -0.019114     -0.012622
      1.19375      4.80082      6.27018        -0.003560      0.019114      0.012622
      3.60343      4.80082      4.29767        -0.003560      0.019114     -0.012622
      3.60343      2.63383      2.74756        -0.003560     -0.019114      0.012622
      3.62561      2.32260      6.27018         0.003560      0.019114      0.012622
      3.62561      0.15561      0.77506         0.003560     -0.019114     -0.012622
      0.51602      0.50749      4.60862        -0.005910     -0.005787     -0.007302
      0.51602      1.97073      2.43661        -0.005910      0.005787      0.007302
      1.89366      2.98570      5.95923         0.005910     -0.005787      0.007302
      1.89366      4.44894      1.08601         0.005910      0.005787     -0.007302
      4.30334      4.44894      2.43661         0.005910      0.005787      0.007302
      4.30334      2.98570      4.60862         0.005910     -0.005787     -0.007302
      2.92570      1.97073      1.08601        -0.005910      0.005787     -0.007302
      2.92570      0.50749      5.95923        -0.005910     -0.005787      0.007302
      0.24188      1.23911      0.00000        -0.009734      0.000000      0.000000
      2.16780      3.71732      3.52262         0.009734      0.000000      0.000000
      4.57748      3.71732      0.00000         0.009734      0.000000      0.000000
      2.65156      1.23911      3.52262        -0.009734      0.000000      0.000000
 -----------------------------------------------------------------------------------
    total drift:                                0.001023     -0.000076     -0.000636


--------------------------------------------------------------------------------------------------------



  FREE ENERGIE OF THE ION-ELECTRON SYSTEM (eV)
  ---------------------------------------------------
  free  energy   TOTEN  =      -147.99806600 eV

  energy  without entropy=     -147.99825472  energy(sigma->0) =     -147.99812890
 


--------------------------------------------------------------------------------------------------------


    POTLOK:  cpu time    0.0843: real time    0.0843


--------------------------------------------------------------------------------------------------------


 stress matrix after NEB project (eV)
     -2.62798     -0.00000      0.00000
      0.00000     -2.52959      0.00000
      0.00000      0.00000     -2.41549
  FORCES: max atom, RMS     0.023180    0.016810
  FORCE total and by dimension    0.075176    0.019114
  Stress total and by dimension    4.374891    2.627977
 writing wavefunctions
     LOOP+:  cpu time   34.6200: real time   34.6436
    4ORBIT:  cpu time    0.0000: real time    0.0000

 total amount of memory used by VASP MPI-rank0    72672. kBytes
=======================================================================

   base      :      30000. kBytes
   nonlr-proj:       2103. kBytes
   fftplans  :       5804. kBytes
   grid      :      10312. kBytes
   one-center:         61. kBytes
   wavefun   :      24392. kBytes
 
  
  
 General timing and accounting informations for this job:
 ========================================================
  
                  Total CPU time used (sec):       36.059
                            User time (sec):       35.825
                          System time (sec):        0.234
                         Elapsed time (sec):       36.305
  
                   Maximum memory used (kb):      112608.
                   Average memory used (kb):           0.
  
                          Minor page faults:        53148
                          Major page faults:            0
                 Voluntary context switches:          533
