 vasp.6.1.0 28Jan20 (build Mar 09 2020 14:40:17) complex                        
  
 executed on             LinuxIFC date 2024.02.04  05:26:32
 running on   16 total cores
 distrk:  each k-point on   16 cores,    1 groups
 distr:  one band on NCORE=   1 cores,   16 groups


--------------------------------------------------------------------------------------------------------


 INCAR:
 POTCAR:    PAW_PBE Al 04Jan2001                  
 POTCAR:    PAW_PBE O 08Apr2002                   
 -----------------------------------------------------------------------------
|                                                                             |
|           W    W    AA    RRRRR   N    N  II  N    N   GGGG   !!!           |
|           W    W   A  A   R    R  NN   N  II  NN   N  G    G  !!!           |
|           W    W  A    A  R    R  N N  N  II  N N  N  G       !!!           |
|           W WW W  AAAAAA  RRRRR   N  N N  II  N  N N  G  GGG   !            |
|           WW  WW  A    A  R   R   N   NN  II  N   NN  G    G                |
|           W    W  A    A  R    R  N    N  II  N    N   GGGG   !!!           |
|                                                                             |
|     For optimal performance we recommend to set                             |
|       NCORE = 4 - approx SQRT(number of cores).                             |
|     NCORE specifies how many cores store one orbital (NPAR=cpu/NCORE).      |
|     This setting can greatly improve the performance of VASP for DFT.       |
|     The default, NCORE=1 might be grossly inefficient on modern             |
|     multi-core architectures or massively parallel machines. Do your        |
|     own testing!!!!                                                         |
|     Unfortunately you need to use the default for GW and RPA                |
|     calculations (for HF NCORE is supported but not extensively tested      |
|     yet).                                                                   |
|                                                                             |
 -----------------------------------------------------------------------------

 POTCAR:    PAW_PBE Al 04Jan2001                  
   SHA256 =  17880443556af62b473fe41b62a467bd001ad55d2cabe504a3f22e34d4e9db96 Al/POTCAR             
   COPYR  = (c) Copyright 04Jan2001 Georg Kresse                                                    
   COPYR  = This file is part of the software VASP. Any use, copying, and all other rights are regul
   COPYR  = If you do not have a valid VASP license, you may not use, copy or distribute this file. 
   VRHFIN =Al: s2p1                                                                                 
   LEXCH  = PE                                                                                      
   EATOM  =    53.5387 eV,    3.9350 Ry                                                             
                                                                                                    
   TITEL  = PAW_PBE Al 04Jan2001                                                                    
   LULTRA =        F    use ultrasoft PP ?                                                          
   IUNSCR =        1    unscreen: 0-lin 1-nonlin 2-no                                               
   RPACOR =    1.500    partial core radius                                                         
   POMASS =   26.981; ZVAL   =    3.000    mass and valenz                                          
   RCORE  =    1.900    outmost cutoff radius                                                       
   RWIGS  =    2.650; RWIGS  =    1.402    wigner-seitz radius (au A)                               
   ENMAX  =  240.300; ENMIN  =  180.225 eV                                                          
   ICORE  =        2    local potential                                                             
   LCOR   =        T    correct aug charges                                                         
   LPAW   =        T    paw PP                                                                      
   EAUG   =  291.052                                                                                
   DEXC   =    0.000                                                                                
   RMAX   =    1.939    core radius for proj-oper                                                   
   RAUG   =    1.300    factor for augmentation sphere                                              
   RDEP   =    1.966    radius for radial grids                                                     
   RDEPT  =    1.856    core radius for aug-charge                                                  
                                                                                                    
   Atomic configuration                                                                             
    6 entries                                                                                       
     n  l   j            E        occ.                                                              
     1  0  0.50     -1511.1048   2.0000                                                             
     2  0  0.50      -108.1629   2.0000                                                             
     2  1  1.50       -69.6402   6.0000                                                             
     3  0  0.50        -7.7528   2.0000                                                             
     3  1  1.50        -2.7121   1.0000                                                             
     3  2  2.50        -2.7212   0.0000                                                             
   Description                                                                                      
     l       E           TYP  RCUT    TYP  RCUT                                                     
     0     -7.7528455     23  1.900                                                                 
     0     -3.3096929     23  1.900                                                                 
     1     -2.7120682     23  1.900                                                                 
     1     13.6058260     23  1.900                                                                 
     2     -2.7211652      7  1.900                                                                 
  local pseudopotential read in
  partial core-charges read in
  partial kinetic energy density read in
  atomic valenz-charges read in
  non local Contribution for L=           0  read in
    real space projection operators read in
  non local Contribution for L=           0  read in
    real space projection operators read in
  non local Contribution for L=           1  read in
    real space projection operators read in
  non local Contribution for L=           1  read in
    real space projection operators read in
    PAW grid and wavefunctions read in
 
   number of l-projection  operators is LMAX  =           4
   number of lm-projection operators is LMMAX =           8
 
 POTCAR:    PAW_PBE O 08Apr2002                   
   SHA256 =  818f92134a0a090dccd8ba1447fa70422a3b330e708bb4f08108d8ae51209ddf O/POTCAR              
   COPYR  = (c) Copyright 08Apr2002 Georg Kresse                                                    
   COPYR  = This file is part of the software VASP. Any use, copying, and all other rights are regul
   COPYR  = If you do not have a valid VASP license, you may not use, copy or distribute this file. 
   VRHFIN =O: s2p4                                                                                  
   LEXCH  = PE                                                                                      
   EATOM  =   432.3788 eV,   31.7789 Ry                                                             
                                                                                                    
   TITEL  = PAW_PBE O 08Apr2002                                                                     
   LULTRA =        F    use ultrasoft PP ?                                                          
   IUNSCR =        1    unscreen: 0-lin 1-nonlin 2-no                                               
   RPACOR =    1.200    partial core radius                                                         
   POMASS =   16.000; ZVAL   =    6.000    mass and valenz                                          
   RCORE  =    1.520    outmost cutoff radius                                                       
   RWIGS  =    1.550; RWIGS  =    0.820    wigner-seitz radius (au A)                               
   ENMAX  =  400.000; ENMIN  =  300.000 eV                                                          
   ICORE  =        2    local potential                                                             
   LCOR   =        T    correct aug charges                                                         
   LPAW   =        T    paw PP                                                                      
   EAUG   =  605.392                                                                                
   DEXC   =    0.000                                                                                
   RMAX   =    1.553    core radius for proj-oper                                                   
   RAUG   =    1.300    factor for augmentation sphere                                              
   RDEP   =    1.550    radius for radial grids                                                     
   RDEPT  =    1.329    core radius for aug-charge                                                  
                                                                                                    
   Atomic configuration                                                                             
    4 entries                                                                                       
     n  l   j            E        occ.                                                              
     1  0  0.50      -514.6923   2.0000                                                             
     2  0  0.50       -23.9615   2.0000                                                             
     2  1  0.50        -9.0305   4.0000                                                             
     3  2  1.50        -9.5241   0.0000                                                             
   Description                                                                                      
     l       E           TYP  RCUT    TYP  RCUT                                                     
     0    -23.9615318     23  1.200                                                                 
     0     -9.5240782     23  1.200                                                                 
     1     -9.0304911     23  1.520                                                                 
     1      8.1634956     23  1.520                                                                 
     2     -9.5240782      7  1.500                                                                 
  local pseudopotential read in
  partial core-charges read in
  partial kinetic energy density read in
  kinetic energy density of atom read in
  atomic valenz-charges read in
  non local Contribution for L=           0  read in
    real space projection operators read in
  non local Contribution for L=           0  read in
    real space projection operators read in
  non local Contribution for L=           1  read in
    real space projection operators read in
  non local Contribution for L=           1  read in
    real space projection operators read in
    PAW grid and wavefunctions read in
 
   number of l-projection  operators is LMAX  =           4
   number of lm-projection operators is LMMAX =           8
 
 Optimization of the real space projectors (new method)

 maximal supplied QI-value         = 19.84
 optimisation between [QCUT,QGAM] = [ 10.12, 20.44] = [ 28.68,116.96] Ry 
 Optimized for a Real-space Cutoff    1.23 Angstroem

   l    n(q)    QCUT    max X(q) W(low)/X(q) W(high)/X(q)  e(spline) 
   0      7    10.119   176.870    0.49E-04    0.18E-03    0.39E-07
   0      7    10.119   105.762    0.46E-04    0.18E-03    0.38E-07
   1      7    10.119    55.370    0.30E-03    0.37E-03    0.12E-06
   1      7    10.119    20.208    0.27E-03    0.35E-03    0.11E-06
 Optimization of the real space projectors (new method)

 maximal supplied QI-value         = 24.76
 optimisation between [QCUT,QGAM] = [ 10.15, 20.30] = [ 28.85,115.39] Ry 
 Optimized for a Real-space Cutoff    1.38 Angstroem

   l    n(q)    QCUT    max X(q) W(low)/X(q) W(high)/X(q)  e(spline) 
   0      8    10.150    20.381    0.22E-03    0.32E-03    0.29E-06
   0      8    10.150    15.268    0.23E-03    0.35E-03    0.30E-06
   1      8    10.150     5.964    0.46E-03    0.53E-03    0.21E-06
   1      8    10.150     5.382    0.38E-03    0.45E-03    0.19E-06
  PAW_PBE Al 04Jan2001                  :
 energy of atom  1       EATOM=  -53.5387
 kinetic energy error for atom=    0.0005 (will be added to EATOM!!)
  PAW_PBE O 08Apr2002                   :
 energy of atom  2       EATOM= -432.3788
 kinetic energy error for atom=    0.1156 (will be added to EATOM!!)
 
 
 POSCAR:    Al  O
  positions in direct lattice
  velocities in cartesian coordinates
 exchange correlation table for  LEXCH =        8
   RHO(1)=    0.500       N(1)  =     2000
   RHO(2)=  100.500       N(2)  =     4000

 VTST: version 3.2, (02/03/18)

 CHAIN: initializing optimizer
 
 OPT: Using VASP Dynamics algorithm
 CHAIN: Read ICHAIN            0
 
 POSCAR:    Al  O
  positions in direct lattice
  velocities in cartesian coordinates
 


--------------------------------------------------------------------------------------------------------


 ion  position               nearest neighbor table
   1  0.126  0.016  0.390-  70 1.85  52 1.87  46 1.91  77 1.95  37 1.96  33 2.01   5 2.66  18 2.85
                            20 2.89  31 3.10  29 3.10  10 3.16   9 3.16   6 3.18
   2  0.126  0.516  0.390-  69 1.85  51 1.87  45 1.91  78 1.95  38 1.96  34 2.01   6 2.66  17 2.85
                            19 2.89  32 3.10  30 3.10   9 3.16  10 3.16   5 3.18
   3  0.626  0.016  0.390-  72 1.85  50 1.87  48 1.91  79 1.95  39 1.96  35 2.01   7 2.66  20 2.85
                            18 2.89  29 3.10  31 3.10  12 3.16  11 3.16   8 3.18
   4  0.626  0.516  0.390-  71 1.85  49 1.87  47 1.91  80 1.95  40 1.96  36 2.01   8 2.66  19 2.85
                            17 2.89  30 3.10  32 3.10  11 3.16  12 3.16   7 3.18
   5  0.126  0.234  0.610-  69 1.85  55 1.87  41 1.91  77 1.95  33 1.96  37 2.01   1 2.66  21 2.85
                            23 2.89  27 3.10  25 3.10  13 3.16  14 3.16   2 3.18
   6  0.126  0.734  0.610-  70 1.85  56 1.87  42 1.91  78 1.95  34 1.96  38 2.01   2 2.66  22 2.85
                            24 2.89  28 3.10  26 3.10  14 3.16  13 3.16   1 3.18
   7  0.626  0.234  0.610-  71 1.85  53 1.87  43 1.91  79 1.95  35 1.96  39 2.01   3 2.66  23 2.85
                            21 2.89  25 3.10  27 3.10  15 3.16  16 3.16   4 3.18
   8  0.626  0.734  0.610-  72 1.85  54 1.87  44 1.91  80 1.95  36 1.96  40 2.01   4 2.66  24 2.85
                            22 2.89  26 3.10  28 3.10  16 3.16  15 3.16   3 3.18
   9  0.124  0.266  0.110-  65 1.85  57 1.87  37 1.91  75 1.95  45 1.96  41 2.01  13 2.66  27 2.85
                            25 2.89  21 3.10  23 3.10   2 3.16   1 3.16  14 3.18
  10  0.124  0.766  0.110-  66 1.85  58 1.87  38 1.91  76 1.95  46 1.96  42 2.01  14 2.66  28 2.85
                            26 2.89  22 3.10  24 3.10   1 3.16   2 3.16  13 3.18
  11  0.624  0.266  0.110-  67 1.85  59 1.87  39 1.91  73 1.95  47 1.96  43 2.01  15 2.66  25 2.85
                            27 2.89  23 3.10  21 3.10   4 3.16   3 3.16  16 3.18
  12  0.624  0.766  0.110-  68 1.85  60 1.87  40 1.91  74 1.95  48 1.96  44 2.01  16 2.66  26 2.85
                            28 2.89  24 3.10  22 3.10   3 3.16   4 3.16  15 3.18
  13  0.124  0.484  0.890-  66 1.85  62 1.87  34 1.91  75 1.95  41 1.96  45 2.01   9 2.66  32 2.85
                            30 2.89  17 3.10  19 3.10   5 3.16   6 3.16  10 3.18
  14  0.124  0.984  0.890-  65 1.85  61 1.87  33 1.91  76 1.95  42 1.96  46 2.01  10 2.66  31 2.85
                            29 2.89  18 3.10  20 3.10   6 3.16   5 3.16   9 3.18
  15  0.624  0.484  0.890-  68 1.85  64 1.87  36 1.91  73 1.95  43 1.96  47 2.01  11 2.66  30 2.85
                            32 2.89  19 3.10  17 3.10   7 3.16   8 3.16  12 3.18
  16  0.624  0.984  0.890-  67 1.85  63 1.87  35 1.91  74 1.95  44 1.96  48 2.01  12 2.66  29 2.85
                            31 2.89  20 3.10  18 3.10   8 3.16   7 3.16  11 3.18
  17  0.374  0.484  0.610-  78 1.85  36 1.87  62 1.91  69 1.95  53 1.96  49 2.01  21 2.66   2 2.85
                             4 2.89  13 3.10  15 3.10  25 3.16  26 3.16  22 3.18
  18  0.374  0.984  0.610-  77 1.85  35 1.87  61 1.91  70 1.95  54 1.96  50 2.01  22 2.66   1 2.85
                             3 2.89  14 3.10  16 3.10  26 3.16  25 3.16  21 3.18
  19  0.874  0.484  0.610-  80 1.85  34 1.87  64 1.91  71 1.95  55 1.96  51 2.01  23 2.66   4 2.85
                             2 2.89  15 3.10  13 3.10  27 3.16  28 3.16  24 3.18
  20  0.874  0.984  0.610-  79 1.85  33 1.87  63 1.91  72 1.95  56 1.96  52 2.01  24 2.66   3 2.85
                             1 2.89  16 3.10  14 3.10  28 3.16  27 3.16  23 3.18
  21  0.374  0.266  0.390-  77 1.85  39 1.87  57 1.91  69 1.95  49 1.96  53 2.01  17 2.66   5 2.85
                             7 2.89   9 3.10  11 3.10  30 3.16  29 3.16  18 3.18
  22  0.374  0.766  0.390-  78 1.85  40 1.87  58 1.91  70 1.95  50 1.96  54 2.01  18 2.66   6 2.85
                             8 2.89  10 3.10  12 3.10  29 3.16  30 3.16  17 3.18
  23  0.874  0.266  0.390-  79 1.85  37 1.87  59 1.91  71 1.95  51 1.96  55 2.01  19 2.66   7 2.85
                             5 2.89  11 3.10   9 3.10  32 3.16  31 3.16  20 3.18
  24  0.874  0.766  0.390-  80 1.85  38 1.87  60 1.91  72 1.95  52 1.96  56 2.01  20 2.66   8 2.85
                             6 2.89  12 3.10  10 3.10  31 3.16  32 3.16  19 3.18
  25  0.376  0.234  0.890-  73 1.85  41 1.87  53 1.91  67 1.95  61 1.96  57 2.01  29 2.66  11 2.85
                             9 2.89   7 3.10   5 3.10  17 3.16  18 3.16  30 3.18
  26  0.376  0.734  0.890-  74 1.85  42 1.87  54 1.91  68 1.95  62 1.96  58 2.01  30 2.66  12 2.85
                            10 2.89   8 3.10   6 3.10  18 3.16  17 3.16  29 3.18
  27  0.876  0.234  0.890-  75 1.85  43 1.87  55 1.91  65 1.95  63 1.96  59 2.01  31 2.66   9 2.85
                            11 2.89   5 3.10   7 3.10  19 3.16  20 3.16  32 3.18
  28  0.876  0.734  0.890-  76 1.85  44 1.87  56 1.91  66 1.95  64 1.96  60 2.01  32 2.66  10 2.85
                            12 2.89   6 3.10   8 3.10  20 3.16  19 3.16  31 3.18
  29  0.376  0.016  0.110-  74 1.85  46 1.87  50 1.91  67 1.95  57 1.96  61 2.01  25 2.66  16 2.85
                            14 2.89   3 3.10   1 3.10  22 3.16  21 3.16  26 3.18
  30  0.376  0.516  0.110-  73 1.85  45 1.87  49 1.91  68 1.95  58 1.96  62 2.01  26 2.66  15 2.85
                            13 2.89   4 3.10   2 3.10  22 3.16  21 3.16  25 3.18
  31  0.876  0.016  0.110-  76 1.85  48 1.87  52 1.91  65 1.95  59 1.96  63 2.01  27 2.66  14 2.85
                            16 2.89   1 3.10   3 3.10  24 3.16  23 3.16  28 3.18
  32  0.876  0.516  0.110-  75 1.85  47 1.87  51 1.91  66 1.95  60 1.96  64 2.01  28 2.66  13 2.85
                            15 2.89   2 3.10   4 3.10  24 3.16  23 3.16  27 3.18
  33  0.054  0.051  0.654-  20 1.87  14 1.91   5 1.96   1 2.01
  34  0.054  0.551  0.654-  19 1.87  13 1.91   6 1.96   2 2.01
  35  0.554  0.051  0.654-  18 1.87  16 1.91   7 1.96   3 2.01
  36  0.554  0.551  0.654-  17 1.87  15 1.91   8 1.96   4 2.01
  37  0.054  0.199  0.346-  23 1.87   9 1.91   1 1.96   5 2.01
  38  0.054  0.699  0.346-  24 1.87  10 1.91   2 1.96   6 2.01
  39  0.554  0.199  0.346-  21 1.87  11 1.91   3 1.96   7 2.01
  40  0.554  0.699  0.346-  22 1.87  12 1.91   4 1.96   8 2.01
  41  0.196  0.301  0.846-  25 1.87   5 1.91  13 1.96   9 2.01
  42  0.196  0.801  0.846-  26 1.87   6 1.91  14 1.96  10 2.01
  43  0.696  0.301  0.846-  27 1.87   7 1.91  15 1.96  11 2.01
  44  0.696  0.801  0.846-  28 1.87   8 1.91  16 1.96  12 2.01
  45  0.196  0.449  0.154-  30 1.87   2 1.91   9 1.96  13 2.01
  46  0.196  0.949  0.154-  29 1.87   1 1.91  10 1.96  14 2.01
  47  0.696  0.449  0.154-  32 1.87   4 1.91  11 1.96  15 2.01
  48  0.696  0.949  0.154-  31 1.87   3 1.91  12 1.96  16 2.01
  49  0.446  0.449  0.346-   4 1.87  30 1.91  21 1.96  17 2.01
  50  0.446  0.949  0.346-   3 1.87  29 1.91  22 1.96  18 2.01
  51  0.946  0.449  0.346-   2 1.87  32 1.91  23 1.96  19 2.01
  52  0.946  0.949  0.346-   1 1.87  31 1.91  24 1.96  20 2.01
  53  0.446  0.301  0.654-   7 1.87  25 1.91  17 1.96  21 2.01
  54  0.446  0.801  0.654-   8 1.87  26 1.91  18 1.96  22 2.01
  55  0.946  0.301  0.654-   5 1.87  27 1.91  19 1.96  23 2.01
  56  0.946  0.801  0.654-   6 1.87  28 1.91  20 1.96  24 2.01
  57  0.304  0.199  0.154-   9 1.87  21 1.91  29 1.96  25 2.01
  58  0.304  0.699  0.154-  10 1.87  22 1.91  30 1.96  26 2.01
  59  0.804  0.199  0.154-  11 1.87  23 1.91  31 1.96  27 2.01
  60  0.804  0.699  0.154-  12 1.87  24 1.91  32 1.96  28 2.01
  61  0.304  0.051  0.846-  14 1.87  18 1.91  25 1.96  29 2.01
  62  0.304  0.551  0.846-  13 1.87  17 1.91  26 1.96  30 2.01
  63  0.804  0.051  0.846-  16 1.87  20 1.91  27 1.96  31 2.01
  64  0.804  0.551  0.846-  15 1.87  19 1.91  28 1.96  32 2.01
  65  0.025  0.125  0.000-  14 1.85   9 1.85  27 1.95  31 1.95
  66  0.025  0.625  0.000-  13 1.85  10 1.85  28 1.95  32 1.95
  67  0.525  0.125  0.000-  16 1.85  11 1.85  25 1.95  29 1.95
  68  0.525  0.625  0.000-  15 1.85  12 1.85  26 1.95  30 1.95
  69  0.225  0.375  0.500-   5 1.85   2 1.85  17 1.95  21 1.95
  70  0.225  0.875  0.500-   6 1.85   1 1.85  18 1.95  22 1.95
  71  0.725  0.375  0.500-   7 1.85   4 1.85  19 1.95  23 1.95
  72  0.725  0.875  0.500-   8 1.85   3 1.85  20 1.95  24 1.95
  73  0.475  0.375  0.000-  25 1.85  30 1.85  15 1.95  11 1.95
  74  0.475  0.875  0.000-  29 1.85  26 1.85  16 1.95  12 1.95
  75  0.975  0.375  0.000-  27 1.85  32 1.85  13 1.95   9 1.95
  76  0.975  0.875  0.000-  31 1.85  28 1.85  14 1.95  10 1.95
  77  0.275  0.125  0.500-  18 1.85  21 1.85   5 1.95   1 1.95
  78  0.275  0.625  0.500-  17 1.85  22 1.85   6 1.95   2 1.95
  79  0.775  0.125  0.500-  20 1.85  23 1.85   7 1.95   3 1.95
  80  0.775  0.625  0.500-  19 1.85  24 1.85   8 1.95   4 1.95
 

IMPORTANT INFORMATION: All symmetrisations will be switched off!
NOSYMM: (Re-)initialisation of all symmetry stuff for point group C_1.


----------------------------------------------------------------------------------------

                                     Primitive cell                                     

  volume of cell :     666.8052

  direct lattice vectors                    reciprocal lattice vectors
     9.608460423  0.000000000  0.000000000     0.104074946  0.000000000  0.000000000
     0.000000000  9.881520532  0.000000000     0.000000000  0.101199000  0.000000000
     0.000000000  0.000000000  7.022979372     0.000000000  0.000000000  0.142389711

  length of vectors
     9.608460423  9.881520532  7.022979372     0.104074946  0.101199000  0.142389711

  position of ions in fractional coordinates (direct lattice)
     0.126150505  0.015697216  0.389988368
     0.126150505  0.515697228  0.389988368
     0.626150520  0.015697216  0.389988368
     0.626150520  0.515697228  0.389988368
     0.126150505  0.234302787  0.610011602
     0.126150505  0.734302772  0.610011602
     0.626150520  0.234302787  0.610011602
     0.626150520  0.734302772  0.610011602
     0.123849495  0.265697228  0.110011610
     0.123849495  0.765697228  0.110011610
     0.623849480  0.265697228  0.110011610
     0.623849480  0.765697228  0.110011610
     0.123849495  0.484302772  0.889988398
     0.123849495  0.984302772  0.889988398
     0.623849480  0.484302772  0.889988398
     0.623849480  0.984302772  0.889988398
     0.373849480  0.484302772  0.610011602
     0.373849480  0.984302772  0.610011602
     0.873849480  0.484302772  0.610011602
     0.873849480  0.984302772  0.610011602
     0.373849480  0.265697228  0.389988368
     0.373849480  0.765697228  0.389988368
     0.873849480  0.265697228  0.389988368
     0.873849480  0.765697228  0.389988368
     0.376150520  0.234302787  0.889988398
     0.376150520  0.734302772  0.889988398
     0.876150520  0.234302787  0.889988398
     0.876150520  0.734302772  0.889988398
     0.376150520  0.015697216  0.110011610
     0.376150520  0.515697228  0.110011610
     0.876150520  0.015697216  0.110011610
     0.876150520  0.515697228  0.110011610
     0.053536265  0.051195499  0.654148561
     0.053536265  0.551195529  0.654148561
     0.553536243  0.051195499  0.654148561
     0.553536243  0.551195529  0.654148561
     0.053536265  0.198804500  0.345851469
     0.053536265  0.698804471  0.345851469
     0.553536243  0.198804500  0.345851469
     0.553536243  0.698804471  0.345851469
     0.196463727  0.301195499  0.845851439
     0.196463727  0.801195529  0.845851439
     0.696463697  0.301195499  0.845851439
     0.696463697  0.801195529  0.845851439
     0.196463727  0.448804500  0.154148517
     0.196463727  0.948804471  0.154148517
     0.696463697  0.448804500  0.154148517
     0.696463697  0.948804471  0.154148517
     0.446463757  0.448804500  0.345851469
     0.446463757  0.948804471  0.345851469
     0.946463757  0.448804500  0.345851469
     0.946463757  0.948804471  0.345851469
     0.446463757  0.301195499  0.654148561
     0.446463757  0.801195529  0.654148561
     0.946463757  0.301195499  0.654148561
     0.946463757  0.801195529  0.654148561
     0.303536243  0.198804500  0.154148517
     0.303536243  0.698804471  0.154148517
     0.803536243  0.198804500  0.154148517
     0.803536243  0.698804471  0.154148517
     0.303536243  0.051195499  0.845851439
     0.303536243  0.551195529  0.845851439
     0.803536243  0.051195499  0.845851439
     0.803536243  0.551195529  0.845851439
     0.025094024  0.125000000  0.000000000
     0.025094024  0.625000000  0.000000000
     0.525094050  0.125000000  0.000000000
     0.525094050  0.625000000  0.000000000
     0.224905980  0.375000000  0.500000000
     0.224905980  0.875000000  0.500000000
     0.724906010  0.375000000  0.500000000
     0.724906010  0.875000000  0.500000000
     0.474905950  0.375000000  0.000000000
     0.474905950  0.875000000  0.000000000
     0.974905950  0.375000000  0.000000000
     0.974905950  0.875000000  0.000000000
     0.275094050  0.125000000  0.500000000
     0.275094050  0.625000000  0.500000000
     0.775094050  0.125000000  0.500000000
     0.775094050  0.625000000  0.500000000

  ion indices of the primitive-cell ions
   primitive index   ion index
                 1           1
                 2           2
                 3           3
                 4           4
                 5           5
                 6           6
                 7           7
                 8           8
                 9           9
                10          10
                11          11
                12          12
                13          13
                14          14
                15          15
                16          16
                17          17
                18          18
                19          19
                20          20
                21          21
                22          22
                23          23
                24          24
                25          25
                26          26
                27          27
                28          28
                29          29
                30          30
                31          31
                32          32
                33          33
                34          34
                35          35
                36          36
                37          37
                38          38
                39          39
                40          40
                41          41
                42          42
                43          43
                44          44
                45          45
                46          46
                47          47
                48          48
                49          49
                50          50
                51          51
                52          52
                53          53
                54          54
                55          55
                56          56
                57          57
                58          58
                59          59
                60          60
                61          61
                62          62
                63          63
                64          64
                65          65
                66          66
                67          67
                68          68
                69          69
                70          70
                71          71
                72          72
                73          73
                74          74
                75          75
                76          76
                77          77
                78          78
                79          79
                80          80

----------------------------------------------------------------------------------------

 
 
 KPOINTS: k-points                                

Automatic generation of k-mesh.
Space group operators:
 irot       det(A)        alpha          n_x          n_y          n_z        tau_x        tau_y        tau_z
    1     1.000000     0.000001     1.000000     0.000000     0.000000     0.000000     0.000000     0.000000
 
 Subroutine IBZKPT returns following result:
 ===========================================
 
 Found      1 irreducible k-points:
 
 Following reciprocal coordinates:
            Coordinates               Weight
  0.000000  0.000000  0.000000      1.000000
 
 Following cartesian coordinates:
            Coordinates               Weight
  0.000000  0.000000  0.000000      1.000000
 


--------------------------------------------------------------------------------------------------------




 Dimension of arrays:
   k-points           NKPTS =      1   k-points in BZ     NKDIM =      1   number of bands    NBANDS=    240
   number of dos      NEDOS =    301   number of ions     NIONS =     80
   non local maximal  LDIM  =      4   non local SUM 2l+1 LMDIM =      8
   total plane-waves  NPLWV =  82944
   max r-space proj   IRMAX =   1420   max aug-charges    IRDMAX=   5040
   dimension x,y,z NGX =    48 NGY =   48 NGZ =   36
   dimension x,y,z NGXF=    96 NGYF=   96 NGZF=   72
   support grid    NGXF=    96 NGYF=   96 NGZF=   72
   ions per type =              32  48
   NGX,Y,Z   is equivalent  to a cutoff of   8.30,  8.08,  8.52 a.u.
   NGXF,Y,Z  is equivalent  to a cutoff of  16.61, 16.15, 17.04 a.u.

 SYSTEM =  Alumina_orthorombic_cell_AIMD           
 POSCAR =     Al  O                                

 Startparameter for this run:
   NWRITE =      2    write-flag & timer
   PREC   = normal    normal or accurate (medium, high low for compatibility)
   ISTART =      0    job   : 0-new  1-cont  2-samecut
   ICHARG =      2    charge: 1-file 2-atom 10-const
   ISPIN  =      1    spin polarized calculation?
   LNONCOLLINEAR =      F non collinear calculations
   LSORBIT =      F    spin-orbit coupling
   INIWAV =      1    electr: 0-lowe 1-rand  2-diag
   LASPH  =      F    aspherical Exc in radial PAW
   METAGGA=      F    non-selfconsistent MetaGGA calc.

 Electronic Relaxation 1
   ENCUT  =  400.0 eV  29.40 Ry    5.42 a.u.  15.67 16.11 11.45*2*pi/ulx,y,z
   ENINI  =  400.0     initial cutoff
   ENAUG  =  605.4 eV  augmentation charge cutoff
   NELM   =    100;   NELMIN=  2; NELMDL=-12     # of ELM steps 
   EDIFF  = 0.1E-04   stopping-criterion for ELM
   LREAL  =      T    real-space projection
   NLSPLINE    = F    spline interpolate recip. space projectors
   LCOMPAT=      F    compatible to vasp.4.4
   GGA_COMPAT  = T    GGA compatible to vasp.4.4-vasp.4.6
   LMAXPAW     = -100 max onsite density
   LMAXMIX     =    2 max onsite mixed and CHGCAR
   VOSKOWN=      0    Vosko Wilk Nusair interpolation
   ROPT   =   -0.00050  -0.00050
 Ionic relaxation
   EDIFFG = 0.1E-03   stopping-criterion for IOM
   NSW    =  20000    number of steps for IOM
   NBLOCK =      1;   KBLOCK =  20000    inner block; outer block 
   IBRION =      0    ionic relax: 0-MD 1-quasi-New 2-CG
   NFREE  =      0    steps in history (QN), initial steepest desc. (CG)
   ISIF   =      2    stress and relaxation
   IWAVPR =     12    prediction:  0-non 1-charg 2-wave 3-comb
   ISYM   =      0    0-nonsym 1-usesym 2-fastsym
   LCORR  =      T    Harris-Foulkes like correction to forces

   POTIM  = 0.5000    time-step for ionic-motion
   TEIN   =    0.0    initial temperature
   TEBEG  =  300.0;   TEEND  = 300.0 temperature during run
   SMASS  =   0.01    Nose mass-parameter (am)
   estimated Nose-frequenzy (Omega)   =  0.31E+15 period in steps = 0.40E+02 mass=   0.924E-29a.u.
   SCALEE = 1.0000    scale energy and forces
   NPACO  =    256;   APACO  = 16.0  distance and # of slots for P.C.
   PSTRESS=    0.0 pullay stress

  Mass of Ions in am
   POMASS =  26.98 16.00
  Ionic Valenz
   ZVAL   =   3.00  6.00
  Atomic Wigner-Seitz radii
   RWIGS  =  -1.00 -1.00
  virtual crystal weights 
   VCA    =   1.00  1.00
   NELECT =     384.0000    total number of electrons
   NUPDOWN=      -1.0000    fix difference up-down

 DOS related values:
   EMIN   =  10.00;   EMAX   =-10.00  energy-range for DOS
   EFERMI =   0.00
   ISMEAR =     0;   SIGMA  =   0.20  broadening in eV -4-tet -1-fermi 0-gaus

 Electronic relaxation 2 (details)
   IALGO  =     48    algorithm
   LDIAG  =      T    sub-space diagonalisation (order eigenvalues)
   LSUBROT=      F    optimize rotation matrix (better conditioning)
   TURBO    =      0    0=normal 1=particle mesh
   IRESTART =      0    0=no restart 2=restart with 2 vectors
   NREBOOT  =      0    no. of reboots
   NMIN     =      0    reboot dimension
   EREF     =   0.00    reference energy to select bands
   IMIX   =      4    mixing-type and parameters
     AMIX     =   0.40;   BMIX     =  1.00
     AMIX_MAG =   1.60;   BMIX_MAG =  1.00
     AMIN     =   0.10
     WC   =   100.;   INIMIX=   1;  MIXPRE=   1;  MAXMIX= -45

 Intra band minimization:
   WEIMIN = 0.0010     energy-eigenvalue tresh-hold
   EBREAK =  0.10E-07  absolut break condition
   DEPER  =   0.30     relativ break condition  

   TIME   =   0.40     timestep for ELM

  volume/ion in A,a.u.               =       8.34        56.25
  Fermi-wavevector in a.u.,A,eV,Ry     =   1.362027  2.573857 25.240391  1.855116
  Thomas-Fermi vector in A             =   2.488552
 
 Write flags
   LWAVE        =      T    write WAVECAR
   LDOWNSAMPLE  =      F    k-point downsampling of WAVECAR
   LCHARG       =      T    write CHGCAR
   LVTOT        =      F    write LOCPOT, total local potential
   LVHAR        =      F    write LOCPOT, Hartree potential only
   LELF         =      F    write electronic localiz. function (ELF)
   LORBIT       =      0    0 simple, 1 ext, 2 COOP (PROOUT), +10 PAW based schemes


 Dipole corrections
   LMONO  =      F    monopole corrections only (constant potential shift)
   LDIPOL =      F    correct potential (dipole corrections)
   IDIPOL =      0    1-x, 2-y, 3-z, 4-all directions 
   EPSILON=  1.0000000 bulk dielectric constant

 Exchange correlation treatment:
   GGA     =    --    GGA type
   LEXCH   =     8    internal setting for exchange type
   VOSKOWN=      0    Vosko Wilk Nusair interpolation
   LHFCALC =     F    Hartree Fock is set to
   LHFONE  =     F    Hartree Fock one center treatment
   AEXX    =    0.0000 exact exchange contribution

 Linear response parameters
   LEPSILON=     F    determine dielectric tensor
   LRPA    =     F    only Hartree local field effects (RPA)
   LNABLA  =     F    use nabla operator in PAW spheres
   LVEL    =     F    velocity operator in full k-point grid
   LINTERFAST=   F  fast interpolation
   KINTER  =     0    interpolate to denser k-point grid
   CSHIFT  =0.1000    complex shift for real part using Kramers Kronig
   OMEGAMAX=  -1.0    maximum frequency
   DEG_THRESHOLD= 0.2000000E-02 threshold for treating states as degnerate
   RTIME   =   -0.100 relaxation time in fs
  (WPLASMAI=    0.000 imaginary part of plasma frequency in eV, 0.658/RTIME)
   DFIELD  = 0.0000000 0.0000000 0.0000000 field for delta impulse in time
 
 Orbital magnetization related:
   ORBITALMAG=     F  switch on orbital magnetization
   LCHIMAG   =     F  perturbation theory with respect to B field
   DQ        =  0.001000  dq finite difference perturbation B field
   LLRAUG    =     F  two centre corrections for induced B field



--------------------------------------------------------------------------------------------------------


 molecular dynamics for ions
   using nose mass (canonical ensemble)
   using selective dynamics as specified on POSCAR
 charge density and potential will be updated during run
 non-spin polarized calculation
 RMM-DIIS sequential band-by-band
 perform sub-space diagonalisation
    before iterative eigenvector-optimisation
 modified Broyden-mixing scheme, WC =      100.0
 initial mixing is a Kerker type mixing with AMIX =  0.4000 and BMIX =      1.0000
 Hartree-type preconditioning will be used
 using additional bands           48
 real space projection scheme for non local part
 use partial core corrections
 calculate Harris-corrections to forces 
   (improved forces if not selfconsistent)
 use gradient corrections 
 use of overlap-Matrix (Vanderbilt PP)
 Gauss-broadening in eV      SIGMA  =   0.20


--------------------------------------------------------------------------------------------------------


  energy-cutoff  :      400.00
  volume of cell :      666.81
      direct lattice vectors                 reciprocal lattice vectors
     9.608460423  0.000000000  0.000000000     0.104074946  0.000000000  0.000000000
     0.000000000  9.881520532  0.000000000     0.000000000  0.101199000  0.000000000
     0.000000000  0.000000000  7.022979372     0.000000000  0.000000000  0.142389711

  length of vectors
     9.608460423  9.881520532  7.022979372     0.104074946  0.101199000  0.142389711


 
 k-points in units of 2pi/SCALE and weight: k-points                                
   0.00000000  0.00000000  0.00000000       1.000
 
 k-points in reciprocal lattice and weights: k-points                                
   0.00000000  0.00000000  0.00000000       1.000
 
 position of ions in fractional coordinates (direct lattice) 
   0.12615050  0.01569722  0.38998837
   0.12615050  0.51569723  0.38998837
   0.62615052  0.01569722  0.38998837
   0.62615052  0.51569723  0.38998837
   0.12615050  0.23430279  0.61001160
   0.12615050  0.73430277  0.61001160
   0.62615052  0.23430279  0.61001160
   0.62615052  0.73430277  0.61001160
   0.12384950  0.26569723  0.11001161
   0.12384950  0.76569723  0.11001161
   0.62384948  0.26569723  0.11001161
   0.62384948  0.76569723  0.11001161
   0.12384950  0.48430277  0.88998840
   0.12384950  0.98430277  0.88998840
   0.62384948  0.48430277  0.88998840
   0.62384948  0.98430277  0.88998840
   0.37384948  0.48430277  0.61001160
   0.37384948  0.98430277  0.61001160
   0.87384948  0.48430277  0.61001160
   0.87384948  0.98430277  0.61001160
   0.37384948  0.26569723  0.38998837
   0.37384948  0.76569723  0.38998837
   0.87384948  0.26569723  0.38998837
   0.87384948  0.76569723  0.38998837
   0.37615052  0.23430279  0.88998840
   0.37615052  0.73430277  0.88998840
   0.87615052  0.23430279  0.88998840
   0.87615052  0.73430277  0.88998840
   0.37615052  0.01569722  0.11001161
   0.37615052  0.51569723  0.11001161
   0.87615052  0.01569722  0.11001161
   0.87615052  0.51569723  0.11001161
   0.05353627  0.05119550  0.65414856
   0.05353627  0.55119553  0.65414856
   0.55353624  0.05119550  0.65414856
   0.55353624  0.55119553  0.65414856
   0.05353627  0.19880450  0.34585147
   0.05353627  0.69880447  0.34585147
   0.55353624  0.19880450  0.34585147
   0.55353624  0.69880447  0.34585147
   0.19646373  0.30119550  0.84585144
   0.19646373  0.80119553  0.84585144
   0.69646370  0.30119550  0.84585144
   0.69646370  0.80119553  0.84585144
   0.19646373  0.44880450  0.15414852
   0.19646373  0.94880447  0.15414852
   0.69646370  0.44880450  0.15414852
   0.69646370  0.94880447  0.15414852
   0.44646376  0.44880450  0.34585147
   0.44646376  0.94880447  0.34585147
   0.94646376  0.44880450  0.34585147
   0.94646376  0.94880447  0.34585147
   0.44646376  0.30119550  0.65414856
   0.44646376  0.80119553  0.65414856
   0.94646376  0.30119550  0.65414856
   0.94646376  0.80119553  0.65414856
   0.30353624  0.19880450  0.15414852
   0.30353624  0.69880447  0.15414852
   0.80353624  0.19880450  0.15414852
   0.80353624  0.69880447  0.15414852
   0.30353624  0.05119550  0.84585144
   0.30353624  0.55119553  0.84585144
   0.80353624  0.05119550  0.84585144
   0.80353624  0.55119553  0.84585144
   0.02509402  0.12500000  0.00000000
   0.02509402  0.62500000  0.00000000
   0.52509405  0.12500000  0.00000000
   0.52509405  0.62500000  0.00000000
   0.22490598  0.37500000  0.50000000
   0.22490598  0.87500000  0.50000000
   0.72490601  0.37500000  0.50000000
   0.72490601  0.87500000  0.50000000
   0.47490595  0.37500000  0.00000000
   0.47490595  0.87500000  0.00000000
   0.97490595  0.37500000  0.00000000
   0.97490595  0.87500000  0.00000000
   0.27509405  0.12500000  0.50000000
   0.27509405  0.62500000  0.50000000
   0.77509405  0.12500000  0.50000000
   0.77509405  0.62500000  0.50000000
 
 position of ions in cartesian coordinates  (Angst):
   1.21211213  0.15511237  2.73888026
   1.21211213  5.09587274  2.73888026
   6.01634249  0.15511237  2.73888026
   6.01634249  5.09587274  2.73888026
   1.21211213  2.31526780  4.28409890
   1.21211213  7.25602792  4.28409890
   6.01634249  2.31526780  4.28409890
   6.01634249  7.25602792  4.28409890
   1.19000297  2.62549261  0.77260927
   1.19000297  7.56625288  0.77260927
   5.99423304  2.62549261  0.77260927
   5.99423304  7.56625288  0.77260927
   1.19000297  4.78564779  6.25037016
   1.19000297  9.72640806  6.25037016
   5.99423304  4.78564779  6.25037016
   5.99423304  9.72640806  6.25037016
   3.59211794  4.78564779  4.28409890
   3.59211794  9.72640806  4.28409890
   8.39634815  4.78564779  4.28409890
   8.39634815  9.72640806  4.28409890
   3.59211794  2.62549261  2.73888026
   3.59211794  7.56625288  2.73888026
   8.39634815  2.62549261  2.73888026
   8.39634815  7.56625288  2.73888026
   3.61422738  2.31526780  6.25037016
   3.61422738  7.25602792  6.25037016
   8.41845759  2.31526780  6.25037016
   8.41845759  7.25602792  6.25037016
   3.61422738  0.15511237  0.77260927
   3.61422738  5.09587274  0.77260927
   8.41845759  0.15511237  0.77260927
   8.41845759  5.09587274  0.77260927
   0.51440109  0.50588938  4.59407185
   0.51440109  5.44664994  4.59407185
   5.31863108  0.50588938  4.59407185
   5.31863108  5.44664994  4.59407185
   0.51440109  1.96449075  2.42890773
   0.51440109  6.90525073  2.42890773
   5.31863108  1.96449075  2.42890773
   5.31863108  6.90525073  2.42890773
   1.88771395  2.97626951  5.94039721
   1.88771395  7.91703007  5.94039721
   6.69194387  2.97626951  5.94039721
   6.69194387  7.91703007  5.94039721
   1.88771395  4.43487089  1.08258185
   1.88771395  9.37563086  1.08258185
   6.69194387  4.43487089  1.08258185
   6.69194387  9.37563086  1.08258185
   4.28982934  4.43487089  2.42890773
   4.28982934  9.37563086  2.42890773
   9.09405955  4.43487089  2.42890773
   9.09405955  9.37563086  2.42890773
   4.28982934  2.97626951  4.59407185
   4.28982934  7.91703007  4.59407185
   9.09405955  2.97626951  4.59407185
   9.09405955  7.91703007  4.59407185
   2.91651598  1.96449075  1.08258185
   2.91651598  6.90525073  1.08258185
   7.72074619  1.96449075  1.08258185
   7.72074619  6.90525073  1.08258185
   2.91651598  0.50588938  5.94039721
   2.91651598  5.44664994  5.94039721
   7.72074619  0.50588938  5.94039721
   7.72074619  5.44664994  5.94039721
   0.24111493  1.23519007  0.00000000
   0.24111493  6.17595033  0.00000000
   5.04534540  1.23519007  0.00000000
   5.04534540  6.17595033  0.00000000
   2.16100021  3.70557020  3.51148969
   2.16100021  8.64633047  3.51148969
   6.96523071  3.70557020  3.51148969
   6.96523071  8.64633047  3.51148969
   4.56311503  3.70557020  0.00000000
   4.56311503  8.64633047  0.00000000
   9.36734524  3.70557020  0.00000000
   9.36734524  8.64633047  0.00000000
   2.64323029  1.23519007  3.51148969
   2.64323029  6.17595033  3.51148969
   7.44746050  1.23519007  3.51148969
   7.44746050  6.17595033  3.51148969
 


--------------------------------------------------------------------------------------------------------


 k-point   1 :   0.0000 0.0000 0.0000  plane waves:   12133

 maximum and minimum number of plane-waves per node :     12133    12133

 maximum number of plane-waves:     12133
 maximum index in each direction: 
   IXMAX=   15   IYMAX=   16   IZMAX=   11
   IXMIN=  -15   IYMIN=  -16   IZMIN=  -11


 serial   3D FFT for wavefunctions
 parallel 3D FFT for charge:
    minimum data exchange during FFTs selected (reduces bandwidth)


 total amount of memory used by VASP MPI-rank0    49337. kBytes
=======================================================================

   base      :      30000. kBytes
   nonlr-proj:       8525. kBytes
   fftplans  :       1776. kBytes
   grid      :       5723. kBytes
   one-center:        245. kBytes
   wavefun   :       3068. kBytes
 
     INWAV:  cpu time    0.0001: real time    0.0005
 Broyden mixing: mesh for mixing (old mesh)
   NGX = 31   NGY = 33   NGZ = 23
  (NGX  = 96   NGY  = 96   NGZ  = 72)
  gives a total of  23529 points

 initial charge density was supplied:
 charge density of overlapping atoms calculated
 number of electron     384.0000000 magnetization 
 keeping initial charge density in first step


--------------------------------------------------------------------------------------------------------


 Maximum index for non-local projection operator         1345
 Maximum index for augmentation-charges          290 (set IRDMAX)


--------------------------------------------------------------------------------------------------------


 First call to EWALD:  gamma=   0.203
 Maximum number of real-space cells 3x 2x 3
 Maximum number of reciprocal cells 3x 3x 2

    FEWALD:  cpu time    0.0045: real time    0.0045


--------------------------------------- Iteration      1(   1)  ---------------------------------------


    POTLOK:  cpu time    0.0307: real time    0.0353
    SETDIJ:  cpu time    0.0075: real time    0.0107
    EDDIAG:  cpu time    0.1038: real time    0.1170
  RMM-DIIS:  cpu time    0.1876: real time    0.1876
    ORTHCH:  cpu time    0.0237: real time    0.0237
       DOS:  cpu time    0.0005: real time    0.0011
    --------------------------------------------
      LOOP:  cpu time    0.3537: real time    0.3754

 eigenvalue-minimisations  :   240
 total energy-change (2. order) : 0.4543009E+04  (-0.1325713E+05)
 number of electron     384.0000000 magnetization 
 augmentation part      384.0000000 magnetization 

 Free energy of the ion-electron system (eV)
  ---------------------------------------------------
  alpha Z        PSCENC =       619.53686852
  Ewald energy   TEWEN  =    -19485.64238745
  -Hartree energ DENC   =     -4927.31922925
  -exchange      EXHF   =         0.00000000
  -V(xc)+E(xc)   XCENC  =       534.14724570
  PAW double counting   =     18752.77991877   -17816.57094691
  entropy T*S    EENTRO =        -0.28338018
  eigenvalues    EBANDS =      4404.50617415
  atomic energy  EATOM  =     22461.85434800
  Solvation  Ediel_sol  =         0.00000000
  ---------------------------------------------------
  free energy    TOTEN  =      4543.00861134 eV

  energy without entropy =     4543.29199152  energy(sigma->0) =     4543.15030143


--------------------------------------------------------------------------------------------------------




--------------------------------------- Iteration      1(   2)  ---------------------------------------


    EDDIAG:  cpu time    0.0973: real time    0.0996
  RMM-DIIS:  cpu time    0.1850: real time    0.1850
    ORTHCH:  cpu time    0.0250: real time    0.0250
       DOS:  cpu time    0.0003: real time    0.0003
    --------------------------------------------
      LOOP:  cpu time    0.3076: real time    0.3099

 eigenvalue-minimisations  :   240
 total energy-change (2. order) :-0.3537649E+04  (-0.3617214E+04)
 number of electron     384.0000000 magnetization 
 augmentation part      384.0000000 magnetization 

 Free energy of the ion-electron system (eV)
  ---------------------------------------------------
  alpha Z        PSCENC =       619.53686852
  Ewald energy   TEWEN  =    -19485.64238745
  -Hartree energ DENC   =     -4927.31922925
  -exchange      EXHF   =         0.00000000
  -V(xc)+E(xc)   XCENC  =       534.14724570
  PAW double counting   =     18752.77991877   -17816.57094691
  entropy T*S    EENTRO =        -0.32840948
  eigenvalues    EBANDS =       866.90210730
  atomic energy  EATOM  =     22461.85434800
  Solvation  Ediel_sol  =         0.00000000
  ---------------------------------------------------
  free energy    TOTEN  =      1005.35951520 eV

  energy without entropy =     1005.68792468  energy(sigma->0) =     1005.52371994


--------------------------------------------------------------------------------------------------------




--------------------------------------- Iteration      1(   3)  ---------------------------------------


    EDDIAG:  cpu time    0.0968: real time    0.0993
  RMM-DIIS:  cpu time    0.1865: real time    0.1865
    ORTHCH:  cpu time    0.0266: real time    0.0266
       DOS:  cpu time    0.0003: real time    0.0003
    --------------------------------------------
      LOOP:  cpu time    0.3102: real time    0.3127

 eigenvalue-minimisations  :   240
 total energy-change (2. order) :-0.1132176E+04  (-0.1176976E+04)
 number of electron     384.0000000 magnetization 
 augmentation part      384.0000000 magnetization 

 Free energy of the ion-electron system (eV)
  ---------------------------------------------------
  alpha Z        PSCENC =       619.53686852
  Ewald energy   TEWEN  =    -19485.64238745
  -Hartree energ DENC   =     -4927.31922925
  -exchange      EXHF   =         0.00000000
  -V(xc)+E(xc)   XCENC  =       534.14724570
  PAW double counting   =     18752.77991877   -17816.57094691
  entropy T*S    EENTRO =        -0.21485658
  eigenvalues    EBANDS =      -265.38707530
  atomic energy  EATOM  =     22461.85434800
  Solvation  Ediel_sol  =         0.00000000
  ---------------------------------------------------
  free energy    TOTEN  =      -126.81611450 eV

  energy without entropy =     -126.60125792  energy(sigma->0) =     -126.70868621


--------------------------------------------------------------------------------------------------------




--------------------------------------- Iteration      1(   4)  ---------------------------------------


    EDDIAG:  cpu time    0.0964: real time    0.0992
  RMM-DIIS:  cpu time    0.1853: real time    0.1853
    ORTHCH:  cpu time    0.0249: real time    0.0249
       DOS:  cpu time    0.0002: real time    0.0002
    --------------------------------------------
      LOOP:  cpu time    0.3068: real time    0.3096

 eigenvalue-minimisations  :   240
 total energy-change (2. order) :-0.3975139E+03  (-0.3380256E+03)
 number of electron     384.0000000 magnetization 
 augmentation part      384.0000000 magnetization 

 Free energy of the ion-electron system (eV)
  ---------------------------------------------------
  alpha Z        PSCENC =       619.53686852
  Ewald energy   TEWEN  =    -19485.64238745
  -Hartree energ DENC   =     -4927.31922925
  -exchange      EXHF   =         0.00000000
  -V(xc)+E(xc)   XCENC  =       534.14724570
  PAW double counting   =     18752.77991877   -17816.57094691
  entropy T*S    EENTRO =        -0.00000000
  eigenvalues    EBANDS =      -663.11579430
  atomic energy  EATOM  =     22461.85434800
  Solvation  Ediel_sol  =         0.00000000
  ---------------------------------------------------
  free energy    TOTEN  =      -524.32997692 eV

  energy without entropy =     -524.32997692  energy(sigma->0) =     -524.32997692


--------------------------------------------------------------------------------------------------------




--------------------------------------- Iteration      1(   5)  ---------------------------------------


    EDDIAG:  cpu time    0.0970: real time    0.0991
  RMM-DIIS:  cpu time    0.1847: real time    0.1848
    ORTHCH:  cpu time    0.0250: real time    0.0250
       DOS:  cpu time    0.0002: real time    0.0002
    --------------------------------------------
      LOOP:  cpu time    0.3069: real time    0.3091

 eigenvalue-minimisations  :   240
 total energy-change (2. order) :-0.9681187E+02  (-0.9134553E+02)
 number of electron     384.0000000 magnetization 
 augmentation part      384.0000000 magnetization 

 Free energy of the ion-electron system (eV)
  ---------------------------------------------------
  alpha Z        PSCENC =       619.53686852
  Ewald energy   TEWEN  =    -19485.64238745
  -Hartree energ DENC   =     -4927.31922925
  -exchange      EXHF   =         0.00000000
  -V(xc)+E(xc)   XCENC  =       534.14724570
  PAW double counting   =     18752.77991877   -17816.57094691
  entropy T*S    EENTRO =        -0.00000000
  eigenvalues    EBANDS =      -759.92766152
  atomic energy  EATOM  =     22461.85434800
  Solvation  Ediel_sol  =         0.00000000
  ---------------------------------------------------
  free energy    TOTEN  =      -621.14184414 eV

  energy without entropy =     -621.14184414  energy(sigma->0) =     -621.14184414


--------------------------------------------------------------------------------------------------------




--------------------------------------- Iteration      1(   6)  ---------------------------------------


    EDDIAG:  cpu time    0.0970: real time    0.0995
  RMM-DIIS:  cpu time    0.1850: real time    0.1850
    ORTHCH:  cpu time    0.0250: real time    0.0250
       DOS:  cpu time    0.0002: real time    0.0002
    --------------------------------------------
      LOOP:  cpu time    0.3072: real time    0.3097

 eigenvalue-minimisations  :   240
 total energy-change (2. order) :-0.2488977E+02  (-0.2388783E+02)
 number of electron     384.0000000 magnetization 
 augmentation part      384.0000000 magnetization 

 Free energy of the ion-electron system (eV)
  ---------------------------------------------------
  alpha Z        PSCENC =       619.53686852
  Ewald energy   TEWEN  =    -19485.64238745
  -Hartree energ DENC   =     -4927.31922925
  -exchange      EXHF   =         0.00000000
  -V(xc)+E(xc)   XCENC  =       534.14724570
  PAW double counting   =     18752.77991877   -17816.57094691
  entropy T*S    EENTRO =        -0.00000000
  eigenvalues    EBANDS =      -784.81742710
  atomic energy  EATOM  =     22461.85434800
  Solvation  Ediel_sol  =         0.00000000
  ---------------------------------------------------
  free energy    TOTEN  =      -646.03160972 eV

  energy without entropy =     -646.03160972  energy(sigma->0) =     -646.03160972


--------------------------------------------------------------------------------------------------------




--------------------------------------- Iteration      1(   7)  ---------------------------------------


    EDDIAG:  cpu time    0.0964: real time    0.0989
  RMM-DIIS:  cpu time    0.1848: real time    0.1848
    ORTHCH:  cpu time    0.0250: real time    0.0250
       DOS:  cpu time    0.0002: real time    0.0002
    --------------------------------------------
      LOOP:  cpu time    0.3063: real time    0.3088

 eigenvalue-minimisations  :   240
 total energy-change (2. order) :-0.6770883E+01  (-0.6636073E+01)
 number of electron     384.0000000 magnetization 
 augmentation part      384.0000000 magnetization 

 Free energy of the ion-electron system (eV)
  ---------------------------------------------------
  alpha Z        PSCENC =       619.53686852
  Ewald energy   TEWEN  =    -19485.64238745
  -Hartree energ DENC   =     -4927.31922925
  -exchange      EXHF   =         0.00000000
  -V(xc)+E(xc)   XCENC  =       534.14724570
  PAW double counting   =     18752.77991877   -17816.57094691
  entropy T*S    EENTRO =        -0.00000000
  eigenvalues    EBANDS =      -791.58830977
  atomic energy  EATOM  =     22461.85434800
  Solvation  Ediel_sol  =         0.00000000
  ---------------------------------------------------
  free energy    TOTEN  =      -652.80249239 eV

  energy without entropy =     -652.80249239  energy(sigma->0) =     -652.80249239


--------------------------------------------------------------------------------------------------------




--------------------------------------- Iteration      1(   8)  ---------------------------------------


    EDDIAG:  cpu time    0.0970: real time    0.0994
  RMM-DIIS:  cpu time    0.1848: real time    0.1848
    ORTHCH:  cpu time    0.0249: real time    0.0249
       DOS:  cpu time    0.0002: real time    0.0002
    --------------------------------------------
      LOOP:  cpu time    0.3069: real time    0.3093

 eigenvalue-minimisations  :   240
 total energy-change (2. order) :-0.2003832E+01  (-0.1932737E+01)
 number of electron     384.0000000 magnetization 
 augmentation part      384.0000000 magnetization 

 Free energy of the ion-electron system (eV)
  ---------------------------------------------------
  alpha Z        PSCENC =       619.53686852
  Ewald energy   TEWEN  =    -19485.64238745
  -Hartree energ DENC   =     -4927.31922925
  -exchange      EXHF   =         0.00000000
  -V(xc)+E(xc)   XCENC  =       534.14724570
  PAW double counting   =     18752.77991877   -17816.57094691
  entropy T*S    EENTRO =        -0.00000000
  eigenvalues    EBANDS =      -793.59214164
  atomic energy  EATOM  =     22461.85434800
  Solvation  Ediel_sol  =         0.00000000
  ---------------------------------------------------
  free energy    TOTEN  =      -654.80632426 eV

  energy without entropy =     -654.80632426  energy(sigma->0) =     -654.80632426


--------------------------------------------------------------------------------------------------------




--------------------------------------- Iteration      1(   9)  ---------------------------------------


    EDDIAG:  cpu time    0.0967: real time    0.0991
  RMM-DIIS:  cpu time    0.3178: real time    0.3188
    ORTHCH:  cpu time    0.0271: real time    0.0271
       DOS:  cpu time    0.0002: real time    0.0002
    --------------------------------------------
      LOOP:  cpu time    0.4418: real time    0.4453

 eigenvalue-minimisations  :   480
 total energy-change (2. order) :-0.5680461E+00  (-0.5551058E+00)
 number of electron     384.0000000 magnetization 
 augmentation part      384.0000000 magnetization 

 Free energy of the ion-electron system (eV)
  ---------------------------------------------------
  alpha Z        PSCENC =       619.53686852
  Ewald energy   TEWEN  =    -19485.64238745
  -Hartree energ DENC   =     -4927.31922925
  -exchange      EXHF   =         0.00000000
  -V(xc)+E(xc)   XCENC  =       534.14724570
  PAW double counting   =     18752.77991877   -17816.57094691
  entropy T*S    EENTRO =        -0.00000000
  eigenvalues    EBANDS =      -794.16018775
  atomic energy  EATOM  =     22461.85434800
  Solvation  Ediel_sol  =         0.00000000
  ---------------------------------------------------
  free energy    TOTEN  =      -655.37437038 eV

  energy without entropy =     -655.37437038  energy(sigma->0) =     -655.37437038


--------------------------------------------------------------------------------------------------------




--------------------------------------- Iteration      1(  10)  ---------------------------------------


    EDDIAG:  cpu time    0.0969: real time    0.0993
  RMM-DIIS:  cpu time    0.3114: real time    0.3114
    ORTHCH:  cpu time    0.0249: real time    0.0249
       DOS:  cpu time    0.0002: real time    0.0002
    --------------------------------------------
      LOOP:  cpu time    0.4333: real time    0.4358

 eigenvalue-minimisations  :   480
 total energy-change (2. order) :-0.2578390E+00  (-0.2554474E+00)
 number of electron     384.0000000 magnetization 
 augmentation part      384.0000000 magnetization 

 Free energy of the ion-electron system (eV)
  ---------------------------------------------------
  alpha Z        PSCENC =       619.53686852
  Ewald energy   TEWEN  =    -19485.64238745
  -Hartree energ DENC   =     -4927.31922925
  -exchange      EXHF   =         0.00000000
  -V(xc)+E(xc)   XCENC  =       534.14724570
  PAW double counting   =     18752.77991877   -17816.57094691
  entropy T*S    EENTRO =        -0.00000000
  eigenvalues    EBANDS =      -794.41802672
  atomic energy  EATOM  =     22461.85434800
  Solvation  Ediel_sol  =         0.00000000
  ---------------------------------------------------
  free energy    TOTEN  =      -655.63220934 eV

  energy without entropy =     -655.63220934  energy(sigma->0) =     -655.63220934


--------------------------------------------------------------------------------------------------------




--------------------------------------- Iteration      1(  11)  ---------------------------------------


    EDDIAG:  cpu time    0.1920: real time    0.1993
  RMM-DIIS:  cpu time    0.3136: real time    0.3139
    ORTHCH:  cpu time    0.0250: real time    0.0250
       DOS:  cpu time    0.0002: real time    0.0002
    --------------------------------------------
      LOOP:  cpu time    0.5308: real time    0.5384

 eigenvalue-minimisations  :   480
 total energy-change (2. order) :-0.3663103E-01  (-0.3406527E-01)
 number of electron     384.0000000 magnetization 
 augmentation part      384.0000000 magnetization 

 Free energy of the ion-electron system (eV)
  ---------------------------------------------------
  alpha Z        PSCENC =       619.53686852
  Ewald energy   TEWEN  =    -19485.64238745
  -Hartree energ DENC   =     -4927.31922925
  -exchange      EXHF   =         0.00000000
  -V(xc)+E(xc)   XCENC  =       534.14724570
  PAW double counting   =     18752.77991877   -17816.57094691
  entropy T*S    EENTRO =        -0.00000000
  eigenvalues    EBANDS =      -794.45465774
  atomic energy  EATOM  =     22461.85434800
  Solvation  Ediel_sol  =         0.00000000
  ---------------------------------------------------
  free energy    TOTEN  =      -655.66884036 eV

  energy without entropy =     -655.66884036  energy(sigma->0) =     -655.66884036


--------------------------------------------------------------------------------------------------------




--------------------------------------- Iteration      1(  12)  ---------------------------------------


    EDDIAG:  cpu time    0.0963: real time    0.0987
  RMM-DIIS:  cpu time    0.3147: real time    0.3149
    ORTHCH:  cpu time    0.0250: real time    0.0250
       DOS:  cpu time    0.0002: real time    0.0002
    CHARGE:  cpu time    0.0215: real time    0.0216
    MIXING:  cpu time    0.0010: real time    0.0011
    --------------------------------------------
      LOOP:  cpu time    0.4587: real time    0.4613

 eigenvalue-minimisations  :   482
 total energy-change (2. order) :-0.1729728E-01  (-0.1708794E-01)
 number of electron     384.0001532 magnetization 
 augmentation part       37.3430500 magnetization 

 Broyden mixing:
  rms(total) = 0.48921E+01    rms(broyden)= 0.48903E+01
  rms(prec ) = 0.64442E+01
  weight for this iteration     100.00

 Free energy of the ion-electron system (eV)
  ---------------------------------------------------
  alpha Z        PSCENC =       619.53686852
  Ewald energy   TEWEN  =    -19485.64238745
  -Hartree energ DENC   =     -4927.31922925
  -exchange      EXHF   =         0.00000000
  -V(xc)+E(xc)   XCENC  =       534.14724570
  PAW double counting   =     18752.77991877   -17816.57094691
  entropy T*S    EENTRO =        -0.00000000
  eigenvalues    EBANDS =      -794.47195503
  atomic energy  EATOM  =     22461.85434800
  Solvation  Ediel_sol  =         0.00000000
  ---------------------------------------------------
  free energy    TOTEN  =      -655.68613765 eV

  energy without entropy =     -655.68613765  energy(sigma->0) =     -655.68613765


--------------------------------------------------------------------------------------------------------




--------------------------------------- Iteration      1(  13)  ---------------------------------------


    POTLOK:  cpu time    0.0231: real time    0.0256
    SETDIJ:  cpu time    0.0060: real time    0.0060
    EDDIAG:  cpu time    0.0949: real time    0.0953
  RMM-DIIS:  cpu time    0.5769: real time    0.5845
    ORTHCH:  cpu time    0.0246: real time    0.0246
       DOS:  cpu time    0.0002: real time    0.0002
    CHARGE:  cpu time    0.0202: real time    0.0202
    MIXING:  cpu time    0.0011: real time    0.0014
    --------------------------------------------
      LOOP:  cpu time    0.7471: real time    0.7578

 eigenvalue-minimisations  :   864
 total energy-change (2. order) : 0.6389103E+02  (-0.2729587E+02)
 number of electron     384.0001318 magnetization 
 augmentation part       31.6230769 magnetization 

 Broyden mixing:
  rms(total) = 0.15826E+01    rms(broyden)= 0.15802E+01
  rms(prec ) = 0.17909E+01
  weight for this iteration     100.00

 eigenvalues of (default mixing * dielectric matrix)
  average eigenvalue GAMMA=   0.9557
  0.9557

 Free energy of the ion-electron system (eV)
  ---------------------------------------------------
  alpha Z        PSCENC =       619.53686852
  Ewald energy   TEWEN  =    -19485.64238745
  -Hartree energ DENC   =     -5671.24773977
  -exchange      EXHF   =         0.00000000
  -V(xc)+E(xc)   XCENC  =       586.69523004
  PAW double counting   =     24191.66008351   -23269.84484711
  entropy T*S    EENTRO =        -0.00000000
  eigenvalues    EBANDS =       -24.80666426
  atomic energy  EATOM  =     22461.85434800
  Solvation  Ediel_sol  =         0.00000000
  ---------------------------------------------------
  free energy    TOTEN  =      -591.79510851 eV

  energy without entropy =     -591.79510851  energy(sigma->0) =     -591.79510851


--------------------------------------------------------------------------------------------------------




--------------------------------------- Iteration      1(  14)  ---------------------------------------


    POTLOK:  cpu time    0.0227: real time    0.0250
    SETDIJ:  cpu time    0.0059: real time    0.0059
    EDDIAG:  cpu time    0.0955: real time    0.0955
  RMM-DIIS:  cpu time    0.4105: real time    0.4109
    ORTHCH:  cpu time    0.0248: real time    0.0248
       DOS:  cpu time    0.0002: real time    0.0002
    CHARGE:  cpu time    0.0204: real time    0.0204
    MIXING:  cpu time    0.0010: real time    0.0010
    --------------------------------------------
      LOOP:  cpu time    0.5811: real time    0.5837

 eigenvalue-minimisations  :   624
 total energy-change (2. order) : 0.6238549E+00  (-0.1316873E+00)
 number of electron     384.0001313 magnetization 
 augmentation part       31.3687197 magnetization 

 Broyden mixing:
  rms(total) = 0.93731E+00    rms(broyden)= 0.93709E+00
  rms(prec ) = 0.10588E+01
  weight for this iteration     100.00

 eigenvalues of (default mixing * dielectric matrix)
  average eigenvalue GAMMA=   1.6436
  1.0414  2.2459

 Free energy of the ion-electron system (eV)
  ---------------------------------------------------
  alpha Z        PSCENC =       619.53686852
  Ewald energy   TEWEN  =    -19485.64238745
  -Hartree energ DENC   =     -5729.32365078
  -exchange      EXHF   =         0.00000000
  -V(xc)+E(xc)   XCENC  =       591.76116171
  PAW double counting   =     27678.45353455   -26756.47297105
  entropy T*S    EENTRO =        -0.00000000
  eigenvalues    EBANDS =        28.66184285
  atomic energy  EATOM  =     22461.85434800
  Solvation  Ediel_sol  =         0.00000000
  ---------------------------------------------------
  free energy    TOTEN  =      -591.17125364 eV

  energy without entropy =     -591.17125364  energy(sigma->0) =     -591.17125364


--------------------------------------------------------------------------------------------------------




--------------------------------------- Iteration      1(  15)  ---------------------------------------


    POTLOK:  cpu time    0.0227: real time    0.0251
    SETDIJ:  cpu time    0.0060: real time    0.0059
    EDDIAG:  cpu time    0.0955: real time    0.0955
  RMM-DIIS:  cpu time    0.3220: real time    0.3220
    ORTHCH:  cpu time    0.0245: real time    0.0245
       DOS:  cpu time    0.0002: real time    0.0002
    CHARGE:  cpu time    0.0203: real time    0.0203
    MIXING:  cpu time    0.0011: real time    0.0011
    --------------------------------------------
      LOOP:  cpu time    0.4923: real time    0.4947

 eigenvalue-minimisations  :   486
 total energy-change (2. order) :-0.3261819E-01  (-0.6583232E-01)
 number of electron     384.0001313 magnetization 
 augmentation part       31.3394068 magnetization 

 Broyden mixing:
  rms(total) = 0.10497E+00    rms(broyden)= 0.10490E+00
  rms(prec ) = 0.12215E+00
  weight for this iteration     100.00

 eigenvalues of (default mixing * dielectric matrix)
  average eigenvalue GAMMA=   1.6350
  2.5995  1.0308  1.2747

 Free energy of the ion-electron system (eV)
  ---------------------------------------------------
  alpha Z        PSCENC =       619.53686852
  Ewald energy   TEWEN  =    -19485.64238745
  -Hartree energ DENC   =     -5781.46502098
  -exchange      EXHF   =         0.00000000
  -V(xc)+E(xc)   XCENC  =       597.38373528
  PAW double counting   =     32570.09999905   -31647.32243653
  entropy T*S    EENTRO =        -0.00000000
  eigenvalues    EBANDS =        74.35102227
  atomic energy  EATOM  =     22461.85434800
  Solvation  Ediel_sol  =         0.00000000
  ---------------------------------------------------
  free energy    TOTEN  =      -591.20387183 eV

  energy without entropy =     -591.20387183  energy(sigma->0) =     -591.20387183


--------------------------------------------------------------------------------------------------------




--------------------------------------- Iteration      1(  16)  ---------------------------------------


    POTLOK:  cpu time    0.0228: real time    0.0253
    SETDIJ:  cpu time    0.0067: real time    0.0067
    EDDIAG:  cpu time    0.1032: real time    0.1032
  RMM-DIIS:  cpu time    0.3127: real time    0.3130
    ORTHCH:  cpu time    0.0249: real time    0.0249
       DOS:  cpu time    0.0002: real time    0.0002
    CHARGE:  cpu time    0.0212: real time    0.0212
    MIXING:  cpu time    0.0015: real time    0.0015
    --------------------------------------------
      LOOP:  cpu time    0.4932: real time    0.4959

 eigenvalue-minimisations  :   480
 total energy-change (2. order) :-0.2971884E-01  (-0.6942393E-02)
 number of electron     384.0001313 magnetization 
 augmentation part       31.3222427 magnetization 

 Broyden mixing:
  rms(total) = 0.53706E-01    rms(broyden)= 0.53693E-01
  rms(prec ) = 0.55556E-01
  weight for this iteration     100.00

 eigenvalues of (default mixing * dielectric matrix)
  average eigenvalue GAMMA=   1.8655
  2.7294  2.7294  1.0275  0.9756

 Free energy of the ion-electron system (eV)
  ---------------------------------------------------
  alpha Z        PSCENC =       619.53686852
  Ewald energy   TEWEN  =    -19485.64238745
  -Hartree energ DENC   =     -5789.16166422
  -exchange      EXHF   =         0.00000000
  -V(xc)+E(xc)   XCENC  =       598.26454169
  PAW double counting   =     32933.91209710   -32011.12498756
  entropy T*S    EENTRO =        -0.00000000
  eigenvalues    EBANDS =        81.12759325
  atomic energy  EATOM  =     22461.85434800
  Solvation  Ediel_sol  =         0.00000000
  ---------------------------------------------------
  free energy    TOTEN  =      -591.23359067 eV

  energy without entropy =     -591.23359067  energy(sigma->0) =     -591.23359067


--------------------------------------------------------------------------------------------------------




--------------------------------------- Iteration      1(  17)  ---------------------------------------


    POTLOK:  cpu time    0.0231: real time    0.0256
    SETDIJ:  cpu time    0.0060: real time    0.0060
    EDDIAG:  cpu time    0.0955: real time    0.0955
  RMM-DIIS:  cpu time    0.3145: real time    0.3145
    ORTHCH:  cpu time    0.0247: real time    0.0247
       DOS:  cpu time    0.0002: real time    0.0002
    CHARGE:  cpu time    0.0204: real time    0.0204
    MIXING:  cpu time    0.0012: real time    0.0012
    --------------------------------------------
      LOOP:  cpu time    0.4856: real time    0.4881

 eigenvalue-minimisations  :   480
 total energy-change (2. order) :-0.3152710E-02  (-0.6309243E-03)
 number of electron     384.0001313 magnetization 
 augmentation part       31.3184790 magnetization 

 Broyden mixing:
  rms(total) = 0.43114E-02    rms(broyden)= 0.42933E-02
  rms(prec ) = 0.49150E-02
  weight for this iteration     100.00

 eigenvalues of (default mixing * dielectric matrix)
  average eigenvalue GAMMA=   1.6750
  2.8428  2.5047  0.9983  0.9983  1.0308

 Free energy of the ion-electron system (eV)
  ---------------------------------------------------
  alpha Z        PSCENC =       619.53686852
  Ewald energy   TEWEN  =    -19485.64238745
  -Hartree energ DENC   =     -5788.83230213
  -exchange      EXHF   =         0.00000000
  -V(xc)+E(xc)   XCENC  =       598.27518571
  PAW double counting   =     32453.84813855   -31531.13188814
  entropy T*S    EENTRO =        -0.00000000
  eigenvalues    EBANDS =        80.85529355
  atomic energy  EATOM  =     22461.85434800
  Solvation  Ediel_sol  =         0.00000000
  ---------------------------------------------------
  free energy    TOTEN  =      -591.23674338 eV

  energy without entropy =     -591.23674338  energy(sigma->0) =     -591.23674338


--------------------------------------------------------------------------------------------------------




--------------------------------------- Iteration      1(  18)  ---------------------------------------


    POTLOK:  cpu time    0.0227: real time    0.0252
    SETDIJ:  cpu time    0.0060: real time    0.0060
    EDDIAG:  cpu time    0.0962: real time    0.0964
  RMM-DIIS:  cpu time    0.3273: real time    0.3274
    ORTHCH:  cpu time    0.0239: real time    0.0239
       DOS:  cpu time    0.0002: real time    0.0002
    CHARGE:  cpu time    0.0204: real time    0.0204
    MIXING:  cpu time    0.0012: real time    0.0012
    --------------------------------------------
      LOOP:  cpu time    0.4979: real time    0.5008

 eigenvalue-minimisations  :   499
 total energy-change (2. order) :-0.1058668E-03  (-0.1381676E-03)
 number of electron     384.0001313 magnetization 
 augmentation part       31.3157620 magnetization 

 Broyden mixing:
  rms(total) = 0.62924E-02    rms(broyden)= 0.62906E-02
  rms(prec ) = 0.64655E-02
  weight for this iteration     100.00

 eigenvalues of (default mixing * dielectric matrix)
  average eigenvalue GAMMA=   1.4211
  2.8571  2.5116  0.9924  0.9924  1.0302  0.1431

 Free energy of the ion-electron system (eV)
  ---------------------------------------------------
  alpha Z        PSCENC =       619.53686852
  Ewald energy   TEWEN  =    -19485.64238745
  -Hartree energ DENC   =     -5789.02550162
  -exchange      EXHF   =         0.00000000
  -V(xc)+E(xc)   XCENC  =       598.29243107
  PAW double counting   =     32482.54695306   -31559.80521411
  entropy T*S    EENTRO =        -0.00000000
  eigenvalues    EBANDS =        81.00565327
  atomic energy  EATOM  =     22461.85434800
  Solvation  Ediel_sol  =         0.00000000
  ---------------------------------------------------
  free energy    TOTEN  =      -591.23684924 eV

  energy without entropy =     -591.23684924  energy(sigma->0) =     -591.23684924


--------------------------------------------------------------------------------------------------------




--------------------------------------- Iteration      1(  19)  ---------------------------------------


    POTLOK:  cpu time    0.0227: real time    0.0254
    SETDIJ:  cpu time    0.0060: real time    0.0060
    EDDIAG:  cpu time    0.0963: real time    0.0963
  RMM-DIIS:  cpu time    0.3123: real time    0.3123
    ORTHCH:  cpu time    0.0232: real time    0.0232
       DOS:  cpu time    0.0002: real time    0.0002
    CHARGE:  cpu time    0.0205: real time    0.0205
    MIXING:  cpu time    0.0013: real time    0.0013
    --------------------------------------------
      LOOP:  cpu time    0.4825: real time    0.4852

 eigenvalue-minimisations  :   465
 total energy-change (2. order) :-0.1885866E-04  (-0.2158795E-04)
 number of electron     384.0001313 magnetization 
 augmentation part       31.3150320 magnetization 

 Broyden mixing:
  rms(total) = 0.63610E-02    rms(broyden)= 0.63607E-02
  rms(prec ) = 0.64953E-02
  weight for this iteration     100.00

 eigenvalues of (default mixing * dielectric matrix)
  average eigenvalue GAMMA=   1.6042
  1.9028  2.7698  2.5158  1.1038  1.1038  1.0207  0.8129

 Free energy of the ion-electron system (eV)
  ---------------------------------------------------
  alpha Z        PSCENC =       619.53686852
  Ewald energy   TEWEN  =    -19485.64238745
  -Hartree energ DENC   =     -5788.98626316
  -exchange      EXHF   =         0.00000000
  -V(xc)+E(xc)   XCENC  =       598.28896188
  PAW double counting   =     32468.90802833   -31546.16181959
  entropy T*S    EENTRO =        -0.00000000
  eigenvalues    EBANDS =        80.96539535
  atomic energy  EATOM  =     22461.85434800
  Solvation  Ediel_sol  =         0.00000000
  ---------------------------------------------------
  free energy    TOTEN  =      -591.23686810 eV

  energy without entropy =     -591.23686810  energy(sigma->0) =     -591.23686810


--------------------------------------------------------------------------------------------------------




--------------------------------------- Iteration      1(  20)  ---------------------------------------


    POTLOK:  cpu time    0.0227: real time    0.0267
    SETDIJ:  cpu time    0.0059: real time    0.0059
    EDDIAG:  cpu time    0.0962: real time    0.0962
  RMM-DIIS:  cpu time    0.2752: real time    0.2752
    ORTHCH:  cpu time    0.0235: real time    0.0235
       DOS:  cpu time    0.0002: real time    0.0002
    --------------------------------------------
      LOOP:  cpu time    0.4236: real time    0.4277

 eigenvalue-minimisations  :   396
 total energy-change (2. order) :-0.1146564E-05  (-0.5454941E-05)
 number of electron     384.0001313 magnetization 
 augmentation part       31.3150320 magnetization 

 Free energy of the ion-electron system (eV)
  ---------------------------------------------------
  alpha Z        PSCENC =       619.53686852
  Ewald energy   TEWEN  =    -19485.64238745
  -Hartree energ DENC   =     -5788.95227331
[...]
   0.334E+01 0.297E+01 -.166E+02   -.330E+01 -.716E+00 0.158E+02   -.169E-01 -.224E+01 0.823E+00   -.232E-03 -.489E-04 0.800E-04
   0.334E+01 0.297E+01 -.166E+02   -.330E+01 -.716E+00 0.158E+02   -.168E-01 -.224E+01 0.823E+00   -.373E-03 -.335E-05 0.111E-03
   -.334E+01 -.297E+01 -.166E+02   0.330E+01 0.716E+00 0.158E+02   0.169E-01 0.224E+01 0.823E+00   0.219E-03 0.483E-04 0.117E-03
   -.334E+01 -.297E+01 -.166E+02   0.330E+01 0.716E+00 0.158E+02   0.168E-01 0.224E+01 0.823E+00   0.337E-03 -.358E-04 0.163E-03
   -.334E+01 -.297E+01 -.166E+02   0.330E+01 0.716E+00 0.158E+02   0.169E-01 0.224E+01 0.823E+00   0.251E-03 0.179E-04 0.139E-03
   -.334E+01 -.297E+01 -.166E+02   0.330E+01 0.716E+00 0.158E+02   0.169E-01 0.224E+01 0.823E+00   0.175E-03 0.111E-03 0.149E-03
   -.334E+01 0.297E+01 0.166E+02   0.330E+01 -.716E+00 -.158E+02   0.168E-01 -.224E+01 -.823E+00   0.263E-03 0.229E-04 -.754E-04
   -.334E+01 0.297E+01 0.166E+02   0.330E+01 -.716E+00 -.158E+02   0.167E-01 -.224E+01 -.823E+00   0.419E-03 -.279E-04 -.136E-03
   -.334E+01 0.297E+01 0.166E+02   0.330E+01 -.716E+00 -.158E+02   0.169E-01 -.224E+01 -.823E+00   0.170E-03 -.448E-04 0.126E-04
   -.334E+01 0.297E+01 0.166E+02   0.330E+01 -.716E+00 -.158E+02   0.169E-01 -.224E+01 -.823E+00   0.167E-03 -.407E-04 0.443E-04
   -.334E+01 0.297E+01 -.166E+02   0.330E+01 -.716E+00 0.158E+02   0.169E-01 -.224E+01 0.823E+00   0.224E-03 0.427E-04 0.203E-03
   -.334E+01 0.297E+01 -.166E+02   0.330E+01 -.716E+00 0.158E+02   0.170E-01 -.224E+01 0.823E+00   0.172E-03 -.325E-04 0.154E-03
   -.334E+01 0.297E+01 -.166E+02   0.330E+01 -.716E+00 0.158E+02   0.169E-01 -.224E+01 0.823E+00   0.254E-03 -.154E-03 0.559E-04
   -.334E+01 0.297E+01 -.166E+02   0.330E+01 -.716E+00 0.158E+02   0.169E-01 -.224E+01 0.823E+00   0.210E-03 -.235E-06 0.744E-04
   -.334E+01 -.297E+01 0.166E+02   0.330E+01 0.716E+00 -.158E+02   0.169E-01 0.224E+01 -.823E+00   0.271E-03 -.879E-04 -.133E-03
   -.334E+01 -.297E+01 0.166E+02   0.330E+01 0.716E+00 -.158E+02   0.169E-01 0.224E+01 -.823E+00   0.239E-03 0.526E-04 -.175E-03
   -.334E+01 -.297E+01 0.166E+02   0.330E+01 0.716E+00 -.158E+02   0.169E-01 0.224E+01 -.823E+00   0.179E-03 0.904E-04 -.214E-03
   -.334E+01 -.297E+01 0.166E+02   0.330E+01 0.716E+00 -.158E+02   0.168E-01 0.224E+01 -.823E+00   0.279E-03 0.104E-03 -.261E-03
   0.334E+01 0.297E+01 0.166E+02   -.330E+01 -.716E+00 -.158E+02   -.169E-01 -.224E+01 -.823E+00   -.184E-03 -.153E-03 -.823E-04
   0.334E+01 0.297E+01 0.166E+02   -.330E+01 -.716E+00 -.158E+02   -.169E-01 -.224E+01 -.823E+00   -.225E-03 -.536E-04 -.451E-04
   0.334E+01 0.297E+01 0.166E+02   -.330E+01 -.716E+00 -.158E+02   -.169E-01 -.224E+01 -.823E+00   -.289E-03 -.571E-04 -.282E-04
   0.334E+01 0.297E+01 0.166E+02   -.330E+01 -.716E+00 -.158E+02   -.169E-01 -.224E+01 -.823E+00   -.261E-03 -.120E-03 -.937E-05
   0.334E+01 -.297E+01 -.166E+02   -.330E+01 0.716E+00 0.158E+02   -.169E-01 0.224E+01 0.823E+00   -.170E-03 0.278E-04 0.488E-04
   0.334E+01 -.297E+01 -.166E+02   -.330E+01 0.716E+00 0.158E+02   -.169E-01 0.224E+01 0.823E+00   -.182E-03 0.159E-03 0.140E-04
   0.334E+01 -.297E+01 -.166E+02   -.330E+01 0.716E+00 0.158E+02   -.168E-01 0.224E+01 0.823E+00   -.422E-03 0.109E-03 0.211E-03
   0.334E+01 -.297E+01 -.166E+02   -.330E+01 0.716E+00 0.158E+02   -.169E-01 0.224E+01 0.823E+00   -.250E-03 0.243E-04 0.184E-03
   0.688E+01 0.318E+01 -.186E+02   -.548E+01 -.259E+01 0.195E+02   -.136E+01 -.621E+00 -.883E+00   -.129E-03 -.322E-04 -.222E-03
   0.688E+01 0.318E+01 -.186E+02   -.548E+01 -.259E+01 0.195E+02   -.136E+01 -.621E+00 -.883E+00   -.149E-03 -.615E-04 -.195E-03
   0.688E+01 0.318E+01 -.186E+02   -.548E+01 -.259E+01 0.195E+02   -.136E+01 -.621E+00 -.883E+00   -.329E-03 -.108E-03 -.174E-03
   0.688E+01 0.318E+01 -.186E+02   -.548E+01 -.259E+01 0.195E+02   -.136E+01 -.621E+00 -.883E+00   -.247E-03 0.315E-04 -.200E-03
   0.688E+01 -.318E+01 0.186E+02   -.548E+01 0.259E+01 -.195E+02   -.136E+01 0.621E+00 0.883E+00   -.292E-03 0.683E-05 0.208E-03
   0.688E+01 -.318E+01 0.186E+02   -.548E+01 0.259E+01 -.195E+02   -.136E+01 0.621E+00 0.883E+00   -.213E-03 0.607E-04 0.135E-03
   0.688E+01 -.318E+01 0.186E+02   -.548E+01 0.259E+01 -.195E+02   -.136E+01 0.621E+00 0.883E+00   -.129E-03 -.818E-04 0.103E-03
   0.688E+01 -.318E+01 0.186E+02   -.548E+01 0.259E+01 -.195E+02   -.136E+01 0.621E+00 0.883E+00   -.236E-03 0.174E-03 0.155E-03
   -.688E+01 0.318E+01 0.186E+02   0.548E+01 -.259E+01 -.195E+02   0.136E+01 -.621E+00 0.883E+00   0.238E-03 -.148E-03 0.225E-03
   -.688E+01 0.318E+01 0.186E+02   0.548E+01 -.259E+01 -.195E+02   0.136E+01 -.621E+00 0.883E+00   0.404E-03 0.221E-05 0.215E-03
   -.688E+01 0.318E+01 0.186E+02   0.548E+01 -.259E+01 -.195E+02   0.136E+01 -.621E+00 0.883E+00   0.199E-03 -.103E-03 0.387E-03
   -.688E+01 0.318E+01 0.186E+02   0.548E+01 -.259E+01 -.195E+02   0.136E+01 -.621E+00 0.883E+00   0.142E-04 0.491E-04 0.436E-03
   -.688E+01 -.318E+01 -.186E+02   0.548E+01 0.259E+01 0.195E+02   0.136E+01 0.621E+00 -.883E+00   0.845E-04 0.103E-03 -.354E-03
   -.688E+01 -.318E+01 -.186E+02   0.548E+01 0.259E+01 0.195E+02   0.136E+01 0.621E+00 -.883E+00   0.418E-03 0.492E-04 -.243E-03
   -.688E+01 -.318E+01 -.186E+02   0.548E+01 0.259E+01 0.195E+02   0.136E+01 0.621E+00 -.883E+00   0.193E-03 0.781E-05 -.155E-03
   -.688E+01 -.318E+01 -.186E+02   0.548E+01 0.259E+01 0.195E+02   0.136E+01 0.621E+00 -.883E+00   0.149E-03 0.768E-04 -.178E-03
   -.688E+01 -.318E+01 0.186E+02   0.548E+01 0.259E+01 -.195E+02   0.136E+01 0.621E+00 0.883E+00   0.331E-03 0.669E-04 0.169E-03
   -.688E+01 -.318E+01 0.186E+02   0.548E+01 0.259E+01 -.195E+02   0.136E+01 0.621E+00 0.883E+00   0.233E-03 0.959E-04 0.172E-03
   -.688E+01 -.318E+01 0.186E+02   0.548E+01 0.259E+01 -.195E+02   0.136E+01 0.621E+00 0.883E+00   0.980E-04 -.257E-04 0.184E-03
   -.688E+01 -.318E+01 0.186E+02   0.548E+01 0.259E+01 -.195E+02   0.136E+01 0.621E+00 0.883E+00   0.421E-04 0.107E-03 0.177E-03
   -.688E+01 0.318E+01 -.186E+02   0.548E+01 -.259E+01 0.195E+02   0.136E+01 -.621E+00 -.883E+00   0.196E-03 -.174E-03 -.123E-03
   -.688E+01 0.318E+01 -.186E+02   0.548E+01 -.259E+01 0.195E+02   0.136E+01 -.621E+00 -.883E+00   0.832E-04 0.404E-04 -.264E-03
   -.688E+01 0.318E+01 -.186E+02   0.548E+01 -.259E+01 0.195E+02   0.136E+01 -.621E+00 -.883E+00   0.188E-03 -.109E-03 -.383E-03
   -.688E+01 0.318E+01 -.186E+02   0.548E+01 -.259E+01 0.195E+02   0.136E+01 -.621E+00 -.883E+00   0.258E-03 -.279E-04 -.421E-03
   0.688E+01 -.318E+01 -.186E+02   -.548E+01 0.259E+01 0.195E+02   -.136E+01 0.621E+00 -.883E+00   -.390E-04 -.143E-03 -.273E-03
   0.688E+01 -.318E+01 -.186E+02   -.548E+01 0.259E+01 0.195E+02   -.136E+01 0.621E+00 -.883E+00   -.116E-03 0.161E-03 -.301E-03
   0.688E+01 -.318E+01 -.186E+02   -.548E+01 0.259E+01 0.195E+02   -.136E+01 0.621E+00 -.883E+00   -.289E-03 -.726E-04 -.151E-03
   0.688E+01 -.318E+01 -.186E+02   -.548E+01 0.259E+01 0.195E+02   -.136E+01 0.621E+00 -.883E+00   -.281E-03 0.895E-04 -.217E-03
   0.688E+01 0.318E+01 0.186E+02   -.548E+01 -.259E+01 -.195E+02   -.136E+01 -.621E+00 0.883E+00   -.451E-04 -.149E-03 0.215E-03
   0.688E+01 0.318E+01 0.186E+02   -.548E+01 -.259E+01 -.195E+02   -.136E+01 -.621E+00 0.883E+00   -.156E-03 0.159E-03 0.313E-03
   0.688E+01 0.318E+01 0.186E+02   -.548E+01 -.259E+01 -.195E+02   -.136E+01 -.621E+00 0.883E+00   -.335E-03 -.687E-04 0.415E-03
   0.688E+01 0.318E+01 0.186E+02   -.548E+01 -.259E+01 -.195E+02   -.136E+01 -.621E+00 0.883E+00   -.222E-03 -.901E-04 0.358E-03
   -.199E+02 -.473E-04 -.309E-04   0.209E+02 0.575E-04 0.366E-04   -.979E+00 0.140E-04 0.143E-04   -.436E-04 0.215E-04 0.180E-04
   -.199E+02 -.285E-04 -.697E-04   0.209E+02 0.287E-04 -.236E-04   -.979E+00 -.181E-04 -.253E-04   -.283E-04 -.144E-04 0.132E-03
   -.199E+02 0.289E-04 -.480E-04   0.209E+02 0.823E-04 0.487E-04   -.979E+00 0.227E-04 -.338E-04   -.638E-04 -.103E-03 0.484E-04
   -.199E+02 -.268E-04 0.120E-04   0.209E+02 -.285E-04 -.124E-05   -.979E+00 -.419E-04 -.386E-04   -.249E-05 0.749E-04 0.601E-04
   0.199E+02 0.965E-04 -.140E-04   -.209E+02 0.615E-05 -.586E-05   0.979E+00 0.446E-05 -.289E-04   -.240E-04 -.100E-03 0.475E-04
   0.199E+02 -.698E-04 -.310E-04   -.209E+02 0.326E-04 -.438E-04   0.979E+00 -.898E-04 0.333E-04   0.218E-03 0.833E-04 0.345E-06
   0.199E+02 -.137E-04 0.101E-03   -.209E+02 -.393E-05 0.157E-04   0.979E+00 -.102E-04 0.397E-04   0.101E-03 0.306E-04 -.185E-03
   0.199E+02 -.928E-04 0.157E-03   -.209E+02 -.218E-04 -.771E-05   0.979E+00 -.233E-04 0.199E-04   -.239E-04 0.108E-03 -.173E-03
   0.199E+02 0.182E-04 -.107E-03   -.209E+02 0.260E-04 0.261E-04   0.979E+00 0.400E-04 0.567E-04   0.145E-03 -.286E-04 0.299E-04
   0.199E+02 -.378E-04 -.593E-04   -.209E+02 -.767E-04 0.271E-05   0.979E+00 0.229E-04 0.947E-05   0.521E-04 0.857E-04 0.310E-04
   0.199E+02 0.542E-04 -.437E-04   -.209E+02 -.344E-04 -.290E-04   0.979E+00 -.538E-04 -.826E-04   0.474E-04 0.513E-04 0.151E-03
   0.199E+02 0.460E-04 -.125E-03   -.209E+02 -.718E-04 0.146E-06   0.979E+00 0.139E-04 -.392E-04   0.922E-04 0.164E-04 0.167E-03
   -.199E+02 0.114E-03 -.802E-04   0.209E+02 0.296E-04 -.178E-04   -.979E+00 -.242E-04 0.676E-04   0.637E-04 -.126E-03 0.671E-04
   -.199E+02 -.766E-04 -.143E-04   0.209E+02 -.537E-04 -.141E-04   -.979E+00 -.689E-04 0.229E-04   -.163E-04 0.177E-03 -.274E-05
   -.199E+02 -.354E-04 0.185E-03   0.209E+02 0.545E-04 -.486E-04   -.979E+00 0.110E-04 0.610E-04   -.975E-04 -.396E-04 -.167E-03
   -.199E+02 0.531E-05 0.144E-03   0.209E+02 -.227E-04 0.311E-04   -.979E+00 0.217E-05 0.639E-04   -.686E-04 -.104E-04 -.204E-03
 -----------------------------------------------------------------------------------------------
   -.587E-04 -.795E-04 -.582E-04   0.178E-13 -.441E-13 -.208E-12   -.134E-04 -.271E-04 0.208E-03   0.290E-03 0.112E-03 0.193E-04
 
 
 POSITION                                       TOTAL-FORCE (eV/Angst)
 -----------------------------------------------------------------------------------
      1.21221      0.15503      2.73881         0.019928     -0.016506     -0.015544
      1.21221      5.09579      2.73881         0.019928     -0.016500     -0.015548
      6.01644      0.15503      2.73881         0.019916     -0.016512     -0.015558
      6.01644      5.09579      2.73881         0.019895     -0.016485     -0.015546
      1.21221      2.31535      4.28417         0.019912      0.016498      0.015548
      1.21221      7.25611      4.28417         0.019915      0.016509      0.015550
      6.01644      2.31535      4.28417         0.019898      0.016472      0.015542
      6.01644      7.25611      4.28417         0.019902      0.016515      0.015535
      1.18991      2.62541      0.77268        -0.019931     -0.016507      0.015545
      1.18991      7.56617      0.77268        -0.019921     -0.016475      0.015545
      5.99414      2.62541      0.77268        -0.019928     -0.016518      0.015554
      5.99414      7.56617      0.77268        -0.019931     -0.016469      0.015553
      1.18991      4.78573      6.25030        -0.019931      0.016488     -0.015551
      1.18991      9.72649      6.25030        -0.019914      0.016497     -0.015543
      5.99414      4.78573      6.25030        -0.019922      0.016489     -0.015547
      5.99414      9.72649      6.25030        -0.019941      0.016492     -0.015522
      3.59202      4.78573      4.28417        -0.019908      0.016480      0.015547
      3.59202      9.72649      4.28417        -0.019895      0.016489      0.015558
      8.39625      4.78573      4.28417        -0.019904      0.016488      0.015547
      8.39625      9.72649      4.28417        -0.019909      0.016507      0.015537
      3.59202      2.62541      2.73881        -0.019904     -0.016491     -0.015541
      3.59202      7.56617      2.73881        -0.019907     -0.016460     -0.015543
      8.39625      2.62541      2.73881        -0.019911     -0.016502     -0.015543
      8.39625      7.56617      2.73881        -0.019943     -0.016492     -0.015554
      3.61432      2.31535      6.25030         0.019922      0.016475     -0.015562
      3.61432      7.25611      6.25030         0.019917      0.016513     -0.015547
      8.41855      2.31535      6.25030         0.019918      0.016497     -0.015550
      8.41855      7.25611      6.25030         0.019922      0.016513     -0.015526
      3.61432      0.15503      0.77268         0.019922     -0.016496      0.015535
      3.61432      5.09579      0.77268         0.019932     -0.016491      0.015553
      8.41855      0.15503      0.77268         0.019910     -0.016507      0.015551
      8.41855      5.09579      0.77268         0.019935     -0.016476      0.015540
      0.51471      0.50566      4.59389         0.039714     -0.030557     -0.022166
      0.51471      5.44642      4.59389         0.039772     -0.030590     -0.022139
      5.31894      0.50566      4.59389         0.039724     -0.030534     -0.022169
      5.31894      5.44642      4.59389         0.039764     -0.030586     -0.022134
      0.51471      1.96472      2.42909         0.039702      0.030555      0.022212
      0.51471      6.90548      2.42909         0.039786      0.030544      0.022173
      5.31894      1.96472      2.42909         0.039728      0.030648      0.022172
      5.31894      6.90548      2.42909         0.039775      0.030531      0.022137
      1.88740      2.97604      5.94058        -0.039719     -0.030572      0.022086
      1.88740      7.91680      5.94058        -0.039695     -0.030560      0.022118
      6.69163      2.97604      5.94058        -0.039765     -0.030547      0.022144
      6.69163      7.91680      5.94058        -0.039750     -0.030613      0.022174
      1.88740      4.43510      1.08240        -0.039651      0.030549     -0.022182
      1.88740      9.37586      1.08240        -0.039774      0.030548     -0.022143
      6.69163      4.43510      1.08240        -0.039686      0.030550     -0.022141
      6.69163      9.37586      1.08240        -0.039689      0.030568     -0.022127
      4.28952      4.43510      2.42909        -0.039786      0.030593      0.022193
      4.28952      9.37586      2.42909        -0.039689      0.030574      0.022140
      9.09375      4.43510      2.42909        -0.039659      0.030600      0.022124
      9.09375      9.37586      2.42909        -0.039747      0.030595      0.022160
      4.28952      2.97604      4.59389        -0.039725     -0.030523     -0.022161
      4.28952      7.91680      4.59389        -0.039702     -0.030588     -0.022211
      9.09375      2.97604      4.59389        -0.039755     -0.030516     -0.022183
      9.09375      7.91680      4.59389        -0.039709     -0.030595     -0.022210
      2.91683      1.96472      1.08240         0.039726      0.030544     -0.022124
      2.91683      6.90548      1.08240         0.039724      0.030577     -0.022137
      7.72106      1.96472      1.08240         0.039743      0.030606     -0.022117
      7.72106      6.90548      1.08240         0.039765      0.030529     -0.022141
      2.91683      0.50566      5.94058         0.039742     -0.030589      0.022195
      2.91683      5.44642      5.94058         0.039723     -0.030536      0.022144
      7.72106      0.50566      5.94058         0.039719     -0.030587      0.022191
      7.72106      5.44642      5.94058         0.039695     -0.030616      0.022169
      0.24126      1.23519      0.00000         0.018209      0.000046      0.000038
      0.24126      6.17595      0.00000         0.018204     -0.000032      0.000014
      5.04549      1.23519      0.00000         0.018238      0.000031      0.000015
      5.04549      6.17595      0.00000         0.018153     -0.000022      0.000032
      2.16085      3.70557      3.51149        -0.018221      0.000007     -0.000001
      2.16085      8.64633      3.51149        -0.018215     -0.000044     -0.000041
      6.96508      3.70557      3.51149        -0.018189      0.000003     -0.000028
      6.96508      8.64633      3.51149        -0.018235     -0.000030     -0.000005
      4.56297      3.70557      7.02298        -0.018232      0.000056      0.000006
      4.56297      8.64633      7.02298        -0.018183     -0.000006     -0.000016
      9.36720      3.70557      7.02298        -0.018196      0.000017     -0.000005
      9.36720      8.64633      7.02298        -0.018217      0.000004      0.000003
      2.64338      1.23519      3.51149         0.018203     -0.000006      0.000037
      2.64338      6.17595      3.51149         0.018235     -0.000022     -0.000008
      7.44761      1.23519      3.51149         0.018195     -0.000009      0.000031
      7.44761      6.17595      3.51149         0.018196     -0.000026      0.000035
 -----------------------------------------------------------------------------------
    total drift:                                0.000218      0.000006      0.000169


--------------------------------------------------------------------------------------------------------



  FREE ENERGIE OF THE ION-ELECTRON SYSTEM (eV)
  ---------------------------------------------------
  free  energy   TOTEN  =      -591.23783728 eV

  energy  without entropy=     -591.23783728  energy(sigma->0) =     -591.23783728
 
 d Force = 0.2235000E-03[ 0.221E-03, 0.226E-03]  d Energy = 0.2238804E-03-0.380E-06
 d Force =-0.1728071E-01[-0.173E-01,-0.173E-01]  d Ewald  =-0.1728071E-01-0.706E-09


--------------------------------------------------------------------------------------------------------


    POTLOK:  cpu time    0.0298: real time    0.0298


--------------------------------------------------------------------------------------------------------


 stress matrix after NEB project (eV)
     -0.32074      0.00002      0.00018
      0.00002     -0.43439      0.00007
      0.00018      0.00007     -2.76013
  FORCES: max atom, RMS     0.054876    0.040398
  FORCE total and by dimension    0.361329    0.039786
  Stress total and by dimension    2.812452    2.760129
           RANDOM_SEED =         123272539                0                0
   IONSTEP:  cpu time    0.0007: real time    0.0017

  ENERGY OF THE ELECTRON-ION-THERMOSTAT SYSTEM (eV)
  ---------------------------------------------------
% ion-electron   TOTEN  =      -591.237837  see above
  kinetic energy EKIN   =         0.001657
  kin. lattice  EKIN_LAT=         0.000000  (temperature    0.16 K)
  nose potential ES     =        -3.099890
  nose kinetic   EPS    =         3.099229
  ---------------------------------------------------
  total energy   ETOTAL =      -591.236841 eV

  maximum distance moved by ions :      0.14E-04

    WAVPRE:  cpu time    0.1139: real time    0.1166
    FEWALD:  cpu time    0.0023: real time    0.0023
    ORTHCH:  cpu time    0.0692: real time    0.0693
     LOOP+:  cpu time    1.9134: real time    1.9249
	 
	 
	 ++++++++++++++++++++++++ NOT THE FULL OUTCAR POSTED HERE +++++++++++++++++++++++++++++++++++
	 
	 
 total amount of memory used by VASP MPI-rank0    55473. kBytes
=======================================================================

   base      :      30000. kBytes
   nonlr-proj:       8525. kBytes
   fftplans  :       1776. kBytes
   grid      :       5723. kBytes
   one-center:        245. kBytes
   wavefun   :       9204. kBytes
 
  
  
 General timing and accounting informations for this job:
 ========================================================
  
                  Total CPU time used (sec):    60932.711
                            User time (sec):    59093.627
                          System time (sec):     1839.085
                         Elapsed time (sec):    63510.523
  
                   Maximum memory used (kb):      191328.
                   Average memory used (kb):           0.
  
                          Minor page faults:    239351245
                          Major page faults:          127
                 Voluntary context switches:       774861	 