 vasp.6.3.0 20Jan22 (build Jul  1 2024 12:21:46) complex                         
 executed on             LinuxGNU date 2024.10.21  13:12:20
 running    1 mpi-ranks, with    1 threads/rank
 distrk:  each k-point on    1 cores,    1 groups
 distr:  one band on NCORE=   1 cores,    1 groups


--------------------------------------------------------------------------------------------------------


 INCAR:
   SYSTEM = Alumina_orthorombic_cell_under_strain
   ISTART = 0
   ICHARG = 2
   ENCUT = 400
   ALGO = Normal
   PREC = Normal
   ISPIN = 1
   LWAVE = T             (Write WAVECAR)
   LCHARG = T             (Write CHGCAR)
   NPAR = 1
   EDIFF = 1E-6
   NSW = 0
   NELM = 100
   POTIM = 0.5
   IBRION = -1
   ISMEAR = 1
   SIGMA = 0.026
   EDIFFG = -0.001
   ISIF = 2
   LREAL = Auto

 POTCAR:    PAW_PBE Al 04Jan2001                  
 POTCAR:    PAW_PBE O 08Apr2002                   
 POTCAR:    PAW_PBE Al 04Jan2001                  
   SHA256 =  17880443556af62b473fe41b62a467bd001ad55d2cabe504a3f22e34d4e9db96 Al/POTCAR             
   COPYR  = (c) Copyright 04Jan2001 Georg Kresse                                                    
   COPYR  = This file is part of the software VASP. Any use, copying, and all other rights are regul
   COPYR  = If you do not have a valid VASP license, you may not use, copy or distribute this file. 
   VRHFIN =Al: s2p1                                                                                 
   LEXCH  = PE                                                                                      
   EATOM  =    53.5387 eV,    3.9350 Ry                                                             
                                                                                                    
   TITEL  = PAW_PBE Al 04Jan2001                                                                    
   LULTRA =        F    use ultrasoft PP ?                                                          
   IUNSCR =        1    unscreen: 0-lin 1-nonlin 2-no                                               
   RPACOR =    1.500    partial core radius                                                         
   POMASS =   26.981; ZVAL   =    3.000    mass and valenz                                          
   RCORE  =    1.900    outmost cutoff radius                                                       
   RWIGS  =    2.650; RWIGS  =    1.402    wigner-seitz radius (au A)                               
   ENMAX  =  240.300; ENMIN  =  180.225 eV                                                          
   ICORE  =        2    local potential                                                             
   LCOR   =        T    correct aug charges                                                         
   LPAW   =        T    paw PP                                                                      
   EAUG   =  291.052                                                                                
   DEXC   =    0.000                                                                                
   RMAX   =    1.939    core radius for proj-oper                                                   
   RAUG   =    1.300    factor for augmentation sphere                                              
   RDEP   =    1.966    radius for radial grids                                                     
   RDEPT  =    1.856    core radius for aug-charge                                                  
                                                                                                    
   Atomic configuration                                                                             
    6 entries                                                                                       
     n  l   j            E        occ.                                                              
     1  0  0.50     -1511.1048   2.0000                                                             
     2  0  0.50      -108.1629   2.0000                                                             
     2  1  1.50       -69.6402   6.0000                                                             
     3  0  0.50        -7.7528   2.0000                                                             
     3  1  1.50        -2.7121   1.0000                                                             
     3  2  2.50        -2.7212   0.0000                                                             
   Description                                                                                      
     l       E           TYP  RCUT    TYP  RCUT                                                     
     0     -7.7528455     23  1.900                                                                 
     0     -3.3096929     23  1.900                                                                 
     1     -2.7120682     23  1.900                                                                 
     1     13.6058260     23  1.900                                                                 
     2     -2.7211652      7  1.900                                                                 
  local pseudopotential read in
  partial core-charges read in
  partial kinetic energy density read in
  atomic valenz-charges read in
  non local Contribution for L=           0  read in
    real space projection operators read in
  non local Contribution for L=           0  read in
    real space projection operators read in
  non local Contribution for L=           1  read in
    real space projection operators read in
  non local Contribution for L=           1  read in
    real space projection operators read in
    PAW grid and wavefunctions read in

   number of l-projection  operators is LMAX  =           4
   number of lm-projection operators is LMMAX =           8

 POTCAR:    PAW_PBE O 08Apr2002                   
   SHA256 =  818f92134a0a090dccd8ba1447fa70422a3b330e708bb4f08108d8ae51209ddf O/POTCAR              
   COPYR  = (c) Copyright 08Apr2002 Georg Kresse                                                    
   COPYR  = This file is part of the software VASP. Any use, copying, and all other rights are regul
   COPYR  = If you do not have a valid VASP license, you may not use, copy or distribute this file. 
   VRHFIN =O: s2p4                                                                                  
   LEXCH  = PE                                                                                      
   EATOM  =   432.3788 eV,   31.7789 Ry                                                             
                                                                                                    
   TITEL  = PAW_PBE O 08Apr2002                                                                     
   LULTRA =        F    use ultrasoft PP ?                                                          
   IUNSCR =        1    unscreen: 0-lin 1-nonlin 2-no                                               
   RPACOR =    1.200    partial core radius                                                         
   POMASS =   16.000; ZVAL   =    6.000    mass and valenz                                          
   RCORE  =    1.520    outmost cutoff radius                                                       
   RWIGS  =    1.550; RWIGS  =    0.820    wigner-seitz radius (au A)                               
   ENMAX  =  400.000; ENMIN  =  300.000 eV                                                          
   ICORE  =        2    local potential                                                             
   LCOR   =        T    correct aug charges                                                         
   LPAW   =        T    paw PP                                                                      
   EAUG   =  605.392                                                                                
   DEXC   =    0.000                                                                                
   RMAX   =    1.553    core radius for proj-oper                                                   
   RAUG   =    1.300    factor for augmentation sphere                                              
   RDEP   =    1.550    radius for radial grids                                                     
   RDEPT  =    1.329    core radius for aug-charge                                                  
                                                                                                    
   Atomic configuration                                                                             
    4 entries                                                                                       
     n  l   j            E        occ.                                                              
     1  0  0.50      -514.6923   2.0000                                                             
     2  0  0.50       -23.9615   2.0000                                                             
     2  1  0.50        -9.0305   4.0000                                                             
     3  2  1.50        -9.5241   0.0000                                                             
   Description                                                                                      
     l       E           TYP  RCUT    TYP  RCUT                                                     
     0    -23.9615318     23  1.200                                                                 
     0     -9.5240782     23  1.200                                                                 
     1     -9.0304911     23  1.520                                                                 
     1      8.1634956     23  1.520                                                                 
     2     -9.5240782      7  1.500                                                                 
  local pseudopotential read in
  partial core-charges read in
  partial kinetic energy density read in
  kinetic energy density of atom read in
  atomic valenz-charges read in
  non local Contribution for L=           0  read in
    real space projection operators read in
  non local Contribution for L=           0  read in
    real space projection operators read in
  non local Contribution for L=           1  read in
    real space projection operators read in
  non local Contribution for L=           1  read in
    real space projection operators read in
    PAW grid and wavefunctions read in

   number of l-projection  operators is LMAX  =           4
   number of lm-projection operators is LMMAX =           8

 Optimization of the real space projectors (new method)

 maximal supplied QI-value         = 19.84
 optimisation between [QCUT,QGAM] = [ 10.12, 20.44] = [ 28.68,116.96] Ry 
 Optimized for a Real-space Cutoff    1.23 Angstroem

   l    n(q)    QCUT    max X(q) W(low)/X(q) W(high)/X(q)  e(spline) 
   0      7    10.119   176.870    0.49E-04    0.18E-03    0.39E-07
   0      7    10.119   105.762    0.46E-04    0.18E-03    0.38E-07
   1      7    10.119    55.370    0.30E-03    0.37E-03    0.12E-06
   1      7    10.119    20.208    0.27E-03    0.35E-03    0.11E-06
 Optimization of the real space projectors (new method)

 maximal supplied QI-value         = 24.76
 optimisation between [QCUT,QGAM] = [ 10.15, 20.30] = [ 28.85,115.39] Ry 
 Optimized for a Real-space Cutoff    1.38 Angstroem

   l    n(q)    QCUT    max X(q) W(low)/X(q) W(high)/X(q)  e(spline) 
   0      8    10.150    20.381    0.22E-03    0.32E-03    0.29E-06
   0      8    10.150    15.268    0.23E-03    0.35E-03    0.30E-06
   1      8    10.150     5.964    0.46E-03    0.53E-03    0.21E-06
   1      8    10.150     5.382    0.38E-03    0.45E-03    0.19E-06
  PAW_PBE Al 04Jan2001                  :
 energy of atom  1       EATOM=  -53.5387
 kinetic energy error for atom=    0.0005 (will be added to EATOM!!)
  PAW_PBE O 08Apr2002                   :
 energy of atom  2       EATOM= -432.3788
 kinetic energy error for atom=    0.1156 (will be added to EATOM!!)


 POSCAR:    Al  O
  positions in direct lattice
  No initial velocities read in
 exchange correlation table for  LEXCH =        8
   RHO(1)=    0.500       N(1)  =     2000
   RHO(2)=  100.500       N(2)  =     4000



--------------------------------------------------------------------------------------------------------


 ion  position               nearest neighbor table
   1  0.126  0.016  0.390-  70 1.98  52 2.01  46 2.04  77 2.09  37 2.10  33 2.15   5 2.84  18 3.05
                            20 3.09  31 3.32  29 3.32
   2  0.126  0.516  0.390-  69 1.98  51 2.01  45 2.04  78 2.09  38 2.10  34 2.15   6 2.84  17 3.05
                            19 3.09  32 3.32  30 3.32
   3  0.626  0.016  0.390-  72 1.98  50 2.01  48 2.04  79 2.09  39 2.10  35 2.15   7 2.84  20 3.05
                            18 3.09  29 3.32  31 3.32
   4  0.626  0.516  0.390-  71 1.98  49 2.01  47 2.04  80 2.09  40 2.10  36 2.15   8 2.84  19 3.05
                            17 3.09  30 3.32  32 3.32
   5  0.126  0.234  0.610-  69 1.98  55 2.01  41 2.04  77 2.09  33 2.10  37 2.15   1 2.84  21 3.05
                            23 3.09  27 3.32  25 3.32
   6  0.126  0.734  0.610-  70 1.98  56 2.01  42 2.04  78 2.09  34 2.10  38 2.15   2 2.84  22 3.05
                            24 3.09  28 3.32  26 3.32
   7  0.626  0.234  0.610-  71 1.98  53 2.01  43 2.04  79 2.09  35 2.10  39 2.15   3 2.84  23 3.05
                            21 3.09  25 3.32  27 3.32
   8  0.626  0.734  0.610-  72 1.98  54 2.01  44 2.04  80 2.09  36 2.10  40 2.15   4 2.84  24 3.05
                            22 3.09  26 3.32  28 3.32
   9  0.124  0.266  0.110-  65 1.98  57 2.01  37 2.04  75 2.09  45 2.10  41 2.15  13 2.84  27 3.05
                            25 3.09  21 3.32  23 3.32
  10  0.124  0.766  0.110-  66 1.98  58 2.01  38 2.04  76 2.09  46 2.10  42 2.15  14 2.84  28 3.05
                            26 3.09  22 3.32  24 3.32
  11  0.624  0.266  0.110-  67 1.98  59 2.01  39 2.04  73 2.09  47 2.10  43 2.15  15 2.84  25 3.05
                            27 3.09  23 3.32  21 3.32
  12  0.624  0.766  0.110-  68 1.98  60 2.01  40 2.04  74 2.09  48 2.10  44 2.15  16 2.84  26 3.05
                            28 3.09  24 3.32  22 3.32
  13  0.124  0.484  0.890-  66 1.98  62 2.01  34 2.04  75 2.09  41 2.10  45 2.15   9 2.84  32 3.05
                            30 3.09  17 3.32  19 3.32
  14  0.124  0.984  0.890-  65 1.98  61 2.01  33 2.04  76 2.09  42 2.10  46 2.15  10 2.84  31 3.05
                            29 3.09  18 3.32  20 3.32
  15  0.624  0.484  0.890-  68 1.98  64 2.01  36 2.04  73 2.09  43 2.10  47 2.15  11 2.84  30 3.05
                            32 3.09  19 3.32  17 3.32
  16  0.624  0.984  0.890-  67 1.98  63 2.01  35 2.04  74 2.09  44 2.10  48 2.15  12 2.84  29 3.05
                            31 3.09  20 3.32  18 3.32
  17  0.374  0.484  0.610-  78 1.98  36 2.01  62 2.04  69 2.09  53 2.10  49 2.15  21 2.84   2 3.05
                             4 3.09  13 3.32  15 3.32
  18  0.374  0.984  0.610-  77 1.98  35 2.01  61 2.04  70 2.09  54 2.10  50 2.15  22 2.84   1 3.05
                             3 3.09  14 3.32  16 3.32
  19  0.874  0.484  0.610-  80 1.98  34 2.01  64 2.04  71 2.09  55 2.10  51 2.15  23 2.84   4 3.05
                             2 3.09  15 3.32  13 3.32
  20  0.874  0.984  0.610-  79 1.98  33 2.01  63 2.04  72 2.09  56 2.10  52 2.15  24 2.84   3 3.05
                             1 3.09  16 3.32  14 3.32
  21  0.374  0.266  0.390-  77 1.98  39 2.01  57 2.04  69 2.09  49 2.10  53 2.15  17 2.84   5 3.05
                             7 3.09   9 3.32  11 3.32
  22  0.374  0.766  0.390-  78 1.98  40 2.01  58 2.04  70 2.09  50 2.10  54 2.15  18 2.84   6 3.05
                             8 3.09  10 3.32  12 3.32
  23  0.874  0.266  0.390-  79 1.98  37 2.01  59 2.04  71 2.09  51 2.10  55 2.15  19 2.84   7 3.05
                             5 3.09  11 3.32   9 3.32
  24  0.874  0.766  0.390-  80 1.98  38 2.01  60 2.04  72 2.09  52 2.10  56 2.15  20 2.84   8 3.05
                             6 3.09  12 3.32  10 3.32
  25  0.376  0.234  0.890-  73 1.98  41 2.01  53 2.04  67 2.09  61 2.10  57 2.15  29 2.84  11 3.05
                             9 3.09   7 3.32   5 3.32
  26  0.376  0.734  0.890-  74 1.98  42 2.01  54 2.04  68 2.09  62 2.10  58 2.15  30 2.84  12 3.05
                            10 3.09   8 3.32   6 3.32
  27  0.876  0.234  0.890-  75 1.98  43 2.01  55 2.04  65 2.09  63 2.10  59 2.15  31 2.84   9 3.05
                            11 3.09   5 3.32   7 3.32
  28  0.876  0.734  0.890-  76 1.98  44 2.01  56 2.04  66 2.09  64 2.10  60 2.15  32 2.84  10 3.05
                            12 3.09   6 3.32   8 3.32
  29  0.376  0.016  0.110-  74 1.98  46 2.01  50 2.04  67 2.09  57 2.10  61 2.15  25 2.84  16 3.05
                            14 3.09   3 3.32   1 3.32
  30  0.376  0.516  0.110-  73 1.98  45 2.01  49 2.04  68 2.09  58 2.10  62 2.15  26 2.84  15 3.05
                            13 3.09   4 3.32   2 3.32
  31  0.876  0.016  0.110-  76 1.98  48 2.01  52 2.04  65 2.09  59 2.10  63 2.15  27 2.84  14 3.05
                            16 3.09   1 3.32   3 3.32
  32  0.876  0.516  0.110-  75 1.98  47 2.01  51 2.04  66 2.09  60 2.10  64 2.15  28 2.84  13 3.05
                            15 3.09   2 3.32   4 3.32
  33  0.054  0.051  0.654-  20 2.01  14 2.04   5 2.10   1 2.15
  34  0.054  0.551  0.654-  19 2.01  13 2.04   6 2.10   2 2.15
  35  0.554  0.051  0.654-  18 2.01  16 2.04   7 2.10   3 2.15
  36  0.554  0.551  0.654-  17 2.01  15 2.04   8 2.10   4 2.15
  37  0.054  0.199  0.346-  23 2.01   9 2.04   1 2.10   5 2.15
  38  0.054  0.699  0.346-  24 2.01  10 2.04   2 2.10   6 2.15
  39  0.554  0.199  0.346-  21 2.01  11 2.04   3 2.10   7 2.15
  40  0.554  0.699  0.346-  22 2.01  12 2.04   4 2.10   8 2.15
  41  0.196  0.301  0.846-  25 2.01   5 2.04  13 2.10   9 2.15
  42  0.196  0.801  0.846-  26 2.01   6 2.04  14 2.10  10 2.15
  43  0.696  0.301  0.846-  27 2.01   7 2.04  15 2.10  11 2.15
  44  0.696  0.801  0.846-  28 2.01   8 2.04  16 2.10  12 2.15
  45  0.196  0.449  0.154-  30 2.01   2 2.04   9 2.10  13 2.15
  46  0.196  0.949  0.154-  29 2.01   1 2.04  10 2.10  14 2.15
  47  0.696  0.449  0.154-  32 2.01   4 2.04  11 2.10  15 2.15
  48  0.696  0.949  0.154-  31 2.01   3 2.04  12 2.10  16 2.15
  49  0.446  0.449  0.346-   4 2.01  30 2.04  21 2.10  17 2.15
  50  0.446  0.949  0.346-   3 2.01  29 2.04  22 2.10  18 2.15
  51  0.946  0.449  0.346-   2 2.01  32 2.04  23 2.10  19 2.15
  52  0.946  0.949  0.346-   1 2.01  31 2.04  24 2.10  20 2.15
  53  0.446  0.301  0.654-   7 2.01  25 2.04  17 2.10  21 2.15
  54  0.446  0.801  0.654-   8 2.01  26 2.04  18 2.10  22 2.15
  55  0.946  0.301  0.654-   5 2.01  27 2.04  19 2.10  23 2.15
  56  0.946  0.801  0.654-   6 2.01  28 2.04  20 2.10  24 2.15
  57  0.304  0.199  0.154-   9 2.01  21 2.04  29 2.10  25 2.15
  58  0.304  0.699  0.154-  10 2.01  22 2.04  30 2.10  26 2.15
  59  0.804  0.199  0.154-  11 2.01  23 2.04  31 2.10  27 2.15
  60  0.804  0.699  0.154-  12 2.01  24 2.04  32 2.10  28 2.15
  61  0.304  0.051  0.846-  14 2.01  18 2.04  25 2.10  29 2.15
  62  0.304  0.551  0.846-  13 2.01  17 2.04  26 2.10  30 2.15
  63  0.804  0.051  0.846-  16 2.01  20 2.04  27 2.10  31 2.15
  64  0.804  0.551  0.846-  15 2.01  19 2.04  28 2.10  32 2.15
  65  0.025  0.125  0.000-  14 1.98   9 1.98  27 2.09  31 2.09
  66  0.025  0.625  0.000-  13 1.98  10 1.98  28 2.09  32 2.09
  67  0.525  0.125  0.000-  16 1.98  11 1.98  25 2.09  29 2.09
  68  0.525  0.625  0.000-  15 1.98  12 1.98  26 2.09  30 2.09
  69  0.225  0.375  0.500-   5 1.98   2 1.98  17 2.09  21 2.09
  70  0.225  0.875  0.500-   6 1.98   1 1.98  18 2.09  22 2.09
  71  0.725  0.375  0.500-   7 1.98   4 1.98  19 2.09  23 2.09
  72  0.725  0.875  0.500-   8 1.98   3 1.98  20 2.09  24 2.09
  73  0.475  0.375  0.000-  25 1.98  30 1.98  15 2.09  11 2.09
  74  0.475  0.875  0.000-  29 1.98  26 1.98  16 2.09  12 2.09
  75  0.975  0.375  0.000-  27 1.98  32 1.98  13 2.09   9 2.09
  76  0.975  0.875  0.000-  31 1.98  28 1.98  14 2.09  10 2.09
  77  0.275  0.125  0.500-  18 1.98  21 1.98   5 2.09   1 2.09
  78  0.275  0.625  0.500-  17 1.98  22 1.98   6 2.09   2 2.09
  79  0.775  0.125  0.500-  20 1.98  23 1.98   7 2.09   3 2.09
  80  0.775  0.625  0.500-  19 1.98  24 1.98   8 2.09   4 2.09

  LATTYP: Found a simple orthorhombic cell.
 ALAT       =     7.5145879279
 B/A-ratio  =     1.3681458986
 C/A-ratio  =     1.4070268484
  
  Lattice vectors:
  
 A1 = (   0.0000000000,   0.0000000000,   7.5145879279)
 A2 = (  10.2810526530,   0.0000000000,   0.0000000000)
 A3 = (   0.0000000000,  10.5732269694,   0.0000000000)


Analysis of symmetry for initial positions (statically):
=====================================================================
 Subroutine PRICEL returns following result:
 
  LATTYP: Found a simple orthorhombic cell.
 ALAT       =     5.1405263268
 B/A-ratio  =     1.0284187391
 C/A-ratio  =     1.4618323981
  
  Lattice vectors:
  
 A1 = (   5.1405263268,   0.0000000000,   0.0000000000)
 A2 = (   0.0000000000,   5.2866136032,   0.0000000000)
 A3 = (   0.0000000000,   0.0000000000,   7.5145879279)
 
   4 primitive cells build up your supercell.
 

 Routine SETGRP: Setting up the symmetry group for a 
 simple orthorhombic supercell.


 Subroutine GETGRP returns: Found  8 space group operations
 (whereof  2 operations were pure point group operations)
 out of a pool of  8 trial point group operations.


The static configuration has the point symmetry S_2 .
 The point group associated with its full space group is D_2h.


Analysis of symmetry for dynamics (positions and initial velocities):
=====================================================================
 Subroutine PRICEL returns following result:
 
  LATTYP: Found a simple orthorhombic cell.
 ALAT       =     5.1405263268
 B/A-ratio  =     1.0284187391
 C/A-ratio  =     1.4618323981
  
  Lattice vectors:
  
 A1 = (   5.1405263268,   0.0000000000,   0.0000000000)
 A2 = (   0.0000000000,   5.2866136032,   0.0000000000)
 A3 = (   0.0000000000,   0.0000000000,   7.5145879279)
 
   4 primitive cells build up your supercell.
 

 Routine SETGRP: Setting up the symmetry group for a 
 simple orthorhombic supercell.


 Subroutine GETGRP returns: Found  8 space group operations
 (whereof  2 operations were pure point group operations)
 out of a pool of  8 trial point group operations.


The dynamic configuration has the point symmetry S_2 .
 The point group associated with its full space group is D_2h.


Analysis of constrained symmetry for selective dynamics:
=====================================================================
 Subroutine PRICEL returns following result:
 
  LATTYP: Found a simple orthorhombic cell.
 ALAT       =     5.1405263268
 B/A-ratio  =     1.0284187391
 C/A-ratio  =     1.4618323981
  
  Lattice vectors:
  
 A1 = (   5.1405263268,   0.0000000000,   0.0000000000)
 A2 = (   0.0000000000,   5.2866136032,   0.0000000000)
 A3 = (   0.0000000000,   0.0000000000,   7.5145879279)
 
   4 primitive cells build up your supercell.
 

 Routine SETGRP: Setting up the symmetry group for a 
 simple orthorhombic supercell.


 Subroutine GETGRP returns: Found  8 space group operations
 (whereof  2 operations were pure point group operations)
 out of a pool of  8 trial point group operations.


The constrained configuration has the point symmetry S_2 .
 The point group associated with its full space group is D_2h.


 Subroutine INISYM returns: Found  8 space group operations
 (whereof  2 operations are pure point group operations),
 and found     4 'primitive' translations


----------------------------------------------------------------------------------------

                                     Primitive cell                                     

  volume of cell :     204.2163

  direct lattice vectors                    reciprocal lattice vectors
     5.140526327  0.000000000  0.000000000     0.194532609  0.000000000  0.000000000
     0.000000000  5.286613603  0.000000000     0.000000000  0.189157006  0.000000000
     0.000000000  0.000000000  7.514587928     0.000000000  0.000000000  0.133074496

  length of vectors
     5.140526327  5.286613603  7.514587928     0.194532609  0.189157006  0.133074496

  position of ions in fractional coordinates (direct lattice)
     0.252301010  0.031394432  0.389988368
     0.252301010  0.468605564  0.610011602
     0.247698990  0.531394421  0.110011610
     0.247698990  0.968605501  0.889988398
     0.747698961  0.968605501  0.610011602
     0.747698961  0.531394421  0.389988368
     0.752301039  0.468605564  0.889988398
     0.752301039  0.031394432  0.110011610
     0.107072531  0.102390997  0.654148561
     0.107072531  0.397608992  0.345851469
     0.392927454  0.602391023  0.845851439
     0.392927454  0.897608899  0.154148517
     0.892927514  0.897608899  0.345851469
     0.892927514  0.602391023  0.654148561
     0.607072486  0.397608992  0.154148517
     0.607072486  0.102390997  0.845851439
     0.050188047  0.249999994  0.000000000
     0.449811960  0.749999961  0.500000000
     0.949811900  0.749999961  0.000000000
     0.550188099  0.249999994  0.500000000

  ion indices of the primitive-cell ions
   primitive index   ion index
                 1           1
                 2           5
                 3          10
                 4          14
                 5          18
                 6          22
                 7          27
                 8          31
                 9          33
                10          37
                11          42
                12          46
                13          52
                14          56
                15          57
                16          61
                17          65
                18          70
                19          76
                20          77

----------------------------------------------------------------------------------------



 KPOINTS: k-points                                

Automatic generation of k-mesh.
 Grid dimensions read from file:
 generate k-points for:    4    4    4

 Generating k-lattice:

  Cartesian coordinates                     Fractional coordinates (reciprocal lattice)
     0.024316576  0.000000000  0.000000000     0.250000000  0.000000000  0.000000000
     0.000000000  0.023644626  0.000000000     0.000000000  0.250000000  0.000000000
     0.000000000  0.000000000  0.033268624     0.000000000  0.000000000  0.250000000

  Length of vectors
     0.024316576  0.023644626  0.033268624

  Shift w.r.t. Gamma in fractional coordinates (k-lattice)
     0.500000000  0.500000000  0.500000000

 
 Subroutine IBZKPT returns following result:
 ===========================================
 
 Found      8 irreducible k-points:
 
 Following reciprocal coordinates:
            Coordinates               Weight
  0.125000  0.125000  0.125000      8.000000
  0.375000  0.125000  0.125000      8.000000
  0.125000  0.375000  0.125000      8.000000
  0.375000  0.375000  0.125000      8.000000
  0.125000  0.125000  0.375000      8.000000
  0.375000  0.125000  0.375000      8.000000
  0.125000  0.375000  0.375000      8.000000
  0.375000  0.375000  0.375000      8.000000
 
 Following cartesian coordinates:
            Coordinates               Weight
  0.012158  0.011822  0.016634      8.000000
  0.036475  0.011822  0.016634      8.000000
  0.012158  0.035467  0.016634      8.000000
  0.036475  0.035467  0.016634      8.000000
  0.012158  0.011822  0.049903      8.000000
  0.036475  0.011822  0.049903      8.000000
  0.012158  0.035467  0.049903      8.000000
  0.036475  0.035467  0.049903      8.000000
 


--------------------------------------------------------------------------------------------------------




 Dimension of arrays:
   k-points           NKPTS =      8   k-points in BZ     NKDIM =      8   number of bands    NBANDS=    233
   number of dos      NEDOS =    301   number of ions     NIONS =     80
   non local maximal  LDIM  =      4   non local SUM 2l+1 LMDIM =      8
   total plane-waves  NPLWV = 108000
   max r-space proj   IRMAX =   1507   max aug-charges    IRDMAX=   5345
   dimension x,y,z NGX =    50 NGY =   54 NGZ =   40
   dimension x,y,z NGXF=   100 NGYF=  108 NGZF=   80
   support grid    NGXF=   100 NGYF=  108 NGZF=   80
   ions per type =              32  48
   NGX,Y,Z   is equivalent  to a cutoff of   8.09,  8.49,  8.85 a.u.
   NGXF,Y,Z  is equivalent  to a cutoff of  16.17, 16.98, 17.70 a.u.

 SYSTEM =  Alumina_orthorombic_cell_under_strain   
 POSCAR =     Al  O                                

 Startparameter for this run:
   NWRITE =      2    write-flag & timer
   PREC   = normal    normal or accurate (medium, high low for compatibility)
   ISTART =      0    job   : 0-new  1-cont  2-samecut
   ICHARG =      2    charge: 1-file 2-atom 10-const
   ISPIN  =      1    spin polarized calculation?
   LNONCOLLINEAR =      F non collinear calculations
   LSORBIT =      F    spin-orbit coupling
   INIWAV =      1    electr: 0-lowe 1-rand  2-diag
   LASPH  =      F    aspherical Exc in radial PAW
 Electronic Relaxation 1
   ENCUT  =  400.0 eV  29.40 Ry    5.42 a.u.  16.77 17.24 12.25*2*pi/ulx,y,z
   ENINI  =  400.0     initial cutoff
   ENAUG  =  605.4 eV  augmentation charge cutoff
   NELM   =    100;   NELMIN=  2; NELMDL= -5     # of ELM steps 
   EDIFF  = 0.1E-05   stopping-criterion for ELM
   LREAL  =      T    real-space projection
   NLSPLINE    = F    spline interpolate recip. space projectors
   LCOMPAT=      F    compatible to vasp.4.4
   GGA_COMPAT  = T    GGA compatible to vasp.4.4-vasp.4.6
   LMAXPAW     = -100 max onsite density
   LMAXMIX     =    2 max onsite mixed and CHGCAR
   VOSKOWN=      0    Vosko Wilk Nusair interpolation
   ROPT   =   -0.00050  -0.00050
 Ionic relaxation
   EDIFFG = -.1E-02   stopping-criterion for IOM
   NSW    =      0    number of steps for IOM
   NBLOCK =      1;   KBLOCK =      1    inner block; outer block 
   IBRION =     -1    ionic relax: 0-MD 1-quasi-New 2-CG
   NFREE  =      0    steps in history (QN), initial steepest desc. (CG)
   ISIF   =      2    stress and relaxation
   IWAVPR =     10    prediction:  0-non 1-charg 2-wave 3-comb
   ISYM   =      2    0-nonsym 1-usesym 2-fastsym
   LCORR  =      T    Harris-Foulkes like correction to forces

   POTIM  = 0.5000    time-step for ionic-motion
   TEIN   =    0.0    initial temperature
   TEBEG  =    0.0;   TEEND  =   0.0 temperature during run
   SMASS  =  -3.00    Nose mass-parameter (am)
   estimated Nose-frequenzy (Omega)   =  0.10E-29 period in steps = 0.13E+47 mass=  -0.242E-26a.u.
   SCALEE = 1.0000    scale energy and forces
   NPACO  =    256;   APACO  = 10.0  distance and # of slots for P.C.
   PSTRESS=    0.0 pullay stress

  Mass of Ions in am
   POMASS =  26.98 16.00
  Ionic Valenz
   ZVAL   =   3.00  6.00
  Atomic Wigner-Seitz radii
   RWIGS  =  -1.00 -1.00
  virtual crystal weights 
   VCA    =   1.00  1.00
   NELECT =     384.0000    total number of electrons
   NUPDOWN=      -1.0000    fix difference up-down

 DOS related values:
   EMIN   =  10.00;   EMAX   =-10.00  energy-range for DOS
   EFERMI =   0.00
   ISMEAR =     1;   SIGMA  =   0.03  broadening in eV -4-tet -1-fermi 0-gaus

 Electronic relaxation 2 (details)
   IALGO  =     38    algorithm
   LDIAG  =      T    sub-space diagonalisation (order eigenvalues)
   LSUBROT=      F    optimize rotation matrix (better conditioning)
   TURBO    =      0    0=normal 1=particle mesh
   IRESTART =      0    0=no restart 2=restart with 2 vectors
   NREBOOT  =      0    no. of reboots
   NMIN     =      0    reboot dimension
   EREF     =   0.00    reference energy to select bands
   IMIX   =      4    mixing-type and parameters
     AMIX     =   0.40;   BMIX     =  1.00
     AMIX_MAG =   1.60;   BMIX_MAG =  1.00
     AMIN     =   0.10
     WC   =   100.;   INIMIX=   1;  MIXPRE=   1;  MAXMIX= -45

 Intra band minimization:
   WEIMIN = 0.0000     energy-eigenvalue tresh-hold
   EBREAK =  0.11E-08  absolut break condition
   DEPER  =   0.30     relativ break condition  

   TIME   =   0.40     timestep for ELM

  volume/ion in A,a.u.               =      10.21        68.91
  Fermi-wavevector in a.u.,A,eV,Ry     =   1.272922  2.405474 22.045935  1.620330
  Thomas-Fermi vector in A             =   2.405774

 Write flags
   LWAVE        =      T    write WAVECAR
   LDOWNSAMPLE  =      F    k-point downsampling of WAVECAR
   LCHARG       =      T    write CHGCAR
   LVTOT        =      F    write LOCPOT, total local potential
   LVHAR        =      F    write LOCPOT, Hartree potential only
   LELF         =      F    write electronic localiz. function (ELF)
   LORBIT       =      0    0 simple, 1 ext, 2 COOP (PROOUT), +10 PAW based schemes


 Dipole corrections
   LMONO  =      F    monopole corrections only (constant potential shift)
   LDIPOL =      F    correct potential (dipole corrections)
   IDIPOL =      0    1-x, 2-y, 3-z, 4-all directions 
   EPSILON=  1.0000000 bulk dielectric constant

 Exchange correlation treatment:
   GGA     =    --    GGA type
   LEXCH   =     8    internal setting for exchange type
   LIBXC   =     F    Libxc                    
   VOSKOWN =     0    Vosko Wilk Nusair interpolation
   LHFCALC =     F    Hartree Fock is set to
   LHFONE  =     F    Hartree Fock one center treatment
   AEXX    =    0.0000 exact exchange contribution

 Linear response parameters
   LEPSILON=     F    determine dielectric tensor
   LRPA    =     F    only Hartree local field effects (RPA)
   LNABLA  =     F    use nabla operator in PAW spheres
   LVEL    =     F    velocity operator in full k-point grid
   CSHIFT  =0.1000    complex shift for real part using Kramers Kronig
   OMEGAMAX=  -1.0    maximum frequency
   DEG_THRESHOLD= 0.2000000E-02 threshold for treating states as degnerate
   RTIME   =   -0.100 relaxation time in fs
  (WPLASMAI=    0.000 imaginary part of plasma frequency in eV, 0.658/RTIME)
   DFIELD  = 0.0000000 0.0000000 0.0000000 field for delta impulse in time

  Optional k-point grid parameters
   LKPOINTS_OPT  =     F    use optional k-point grid
   KPOINTS_OPT_MODE=     1    mode for optional k-point grid

 Orbital magnetization related:
   ORBITALMAG=     F  switch on orbital magnetization
   LCHIMAG   =     F  perturbation theory with respect to B field
   DQ        =  0.001000  dq finite difference perturbation B field
   LLRAUG    =     F  two centre corrections for induced B field



--------------------------------------------------------------------------------------------------------


 Static calculation
 charge density and potential will be updated during run
 non-spin polarized calculation
 Variant of blocked Davidson
 Davidson routine will perform the subspace rotation
 perform sub-space diagonalisation
    after iterative eigenvector-optimisation
 modified Broyden-mixing scheme, WC =      100.0
 initial mixing is a Kerker type mixing with AMIX =  0.4000 and BMIX =      1.0000
 Hartree-type preconditioning will be used
 using additional bands           41
 real space projection scheme for non local part
 use partial core corrections
 calculate Harris-corrections to forces   (improved forces if not selfconsistent)
 use gradient corrections 
 use of overlap-Matrix (Vanderbilt PP)
 Methfessel and Paxton  Order N= 1 SIGMA  =   0.03


--------------------------------------------------------------------------------------------------------


  energy-cutoff  :      400.00
  volume of cell :      816.87
      direct lattice vectors                 reciprocal lattice vectors
    10.281052653  0.000000000  0.000000000     0.097266305  0.000000000  0.000000000
     0.000000000 10.573226969  0.000000000     0.000000000  0.094578505  0.000000000
     0.000000000  0.000000000  7.514587928     0.000000000  0.000000000  0.133074496

  length of vectors
    10.281052653 10.573226969  7.514587928     0.097266305  0.094578505  0.133074496



 k-points in units of 2pi/SCALE and weight: k-points                                
   0.01215829  0.01182231  0.01663431       0.125
   0.03647486  0.01182231  0.01663431       0.125
   0.01215829  0.03546694  0.01663431       0.125
   0.03647486  0.03546694  0.01663431       0.125
   0.01215829  0.01182231  0.04990294       0.125
   0.03647486  0.01182231  0.04990294       0.125
   0.01215829  0.03546694  0.04990294       0.125
   0.03647486  0.03546694  0.04990294       0.125

 k-points in reciprocal lattice and weights: k-points                                
   0.12500000  0.12500000  0.12500000       0.125
   0.37500000  0.12500000  0.12500000       0.125
   0.12500000  0.37500000  0.12500000       0.125
   0.37500000  0.37500000  0.12500000       0.125
   0.12500000  0.12500000  0.37500000       0.125
   0.37500000  0.12500000  0.37500000       0.125
   0.12500000  0.37500000  0.37500000       0.125
   0.37500000  0.37500000  0.37500000       0.125

 position of ions in fractional coordinates (direct lattice) 
   0.12615050  0.01569722  0.38998837
   0.12615050  0.51569723  0.38998837
   0.62615052  0.01569722  0.38998837
   0.62615052  0.51569723  0.38998837
   0.12615050  0.23430279  0.61001160
   0.12615050  0.73430277  0.61001160
   0.62615052  0.23430279  0.61001160
   0.62615052  0.73430277  0.61001160
   0.12384950  0.26569723  0.11001161
   0.12384950  0.76569723  0.11001161
   0.62384948  0.26569723  0.11001161
   0.62384948  0.76569723  0.11001161
   0.12384950  0.48430277  0.88998840
   0.12384950  0.98430277  0.88998840
   0.62384948  0.48430277  0.88998840
   0.62384948  0.98430277  0.88998840
   0.37384948  0.48430277  0.61001160
   0.37384948  0.98430277  0.61001160
   0.87384948  0.48430277  0.61001160
   0.87384948  0.98430277  0.61001160
   0.37384948  0.26569723  0.38998837
   0.37384948  0.76569723  0.38998837
   0.87384948  0.26569723  0.38998837
   0.87384948  0.76569723  0.38998837
   0.37615052  0.23430279  0.88998840
   0.37615052  0.73430277  0.88998840
   0.87615052  0.23430279  0.88998840
   0.87615052  0.73430277  0.88998840
   0.37615052  0.01569722  0.11001161
   0.37615052  0.51569723  0.11001161
   0.87615052  0.01569722  0.11001161
   0.87615052  0.51569723  0.11001161
   0.05353627  0.05119550  0.65414856
   0.05353627  0.55119553  0.65414856
   0.55353624  0.05119550  0.65414856
   0.55353624  0.55119553  0.65414856
   0.05353627  0.19880450  0.34585147
   0.05353627  0.69880447  0.34585147
   0.55353624  0.19880450  0.34585147
   0.55353624  0.69880447  0.34585147
   0.19646373  0.30119550  0.84585144
   0.19646373  0.80119553  0.84585144
   0.69646370  0.30119550  0.84585144
   0.69646370  0.80119553  0.84585144
   0.19646373  0.44880450  0.15414852
   0.19646373  0.94880447  0.15414852
   0.69646370  0.44880450  0.15414852
   0.69646370  0.94880447  0.15414852
   0.44646376  0.44880450  0.34585147
   0.44646376  0.94880447  0.34585147
   0.94646376  0.44880450  0.34585147
   0.94646376  0.94880447  0.34585147
   0.44646376  0.30119550  0.65414856
   0.44646376  0.80119553  0.65414856
   0.94646376  0.30119550  0.65414856
   0.94646376  0.80119553  0.65414856
   0.30353624  0.19880450  0.15414852
   0.30353624  0.69880447  0.15414852
   0.80353624  0.19880450  0.15414852
   0.80353624  0.69880447  0.15414852
   0.30353624  0.05119550  0.84585144
   0.30353624  0.55119553  0.84585144
   0.80353624  0.05119550  0.84585144
   0.80353624  0.55119553  0.84585144
   0.02509402  0.12500000  0.00000000
   0.02509402  0.62500000  0.00000000
   0.52509405  0.12500000  0.00000000
   0.52509405  0.62500000  0.00000000
   0.22490598  0.37500000  0.50000000
   0.22490598  0.87500000  0.50000000
   0.72490601  0.37500000  0.50000000
   0.72490601  0.87500000  0.50000000
   0.47490595  0.37500000  0.00000000
   0.47490595  0.87500000  0.00000000
   0.97490595  0.37500000  0.00000000
   0.97490595  0.87500000  0.00000000
   0.27509405  0.12500000  0.50000000
   0.27509405  0.62500000  0.50000000
   0.77509405  0.12500000  0.50000000
   0.77509405  0.62500000  0.50000000

 position of ions in cartesian coordinates  (Angst):
   1.29695998  0.16597023  2.93060188
   1.29695998  5.45258383  2.93060188
   6.43748646  0.16597023  2.93060188
   6.43748646  5.45258383  2.93060188
   1.29695998  2.47733655  4.58398582
   1.29695998  7.76394988  4.58398582
   6.43748646  2.47733655  4.58398582
   6.43748646  7.76394988  4.58398582
   1.27330318  2.80927709  0.82669191
   1.27330318  8.09589058  0.82669191
   6.41382935  2.80927709  0.82669191
   6.41382935  8.09589058  0.82669191
   1.27330318  5.12064313  6.68789607
   1.27330318 10.40725662  6.68789607
   6.41382935  5.12064313  6.68789607
   6.41382935 10.40725662  6.68789607
   3.84356619  5.12064313  4.58398582
   3.84356619 10.40725662  4.58398582
   8.98409252  5.12064313  4.58398582
   8.98409252 10.40725662  4.58398582
   3.84356619  2.80927709  2.93060188
   3.84356619  8.09589058  2.93060188
   8.98409252  2.80927709  2.93060188
   8.98409252  8.09589058  2.93060188
   3.86722330  2.47733655  6.68789607
   3.86722330  7.76394988  6.68789607
   9.00774962  2.47733655  6.68789607
   9.00774962  7.76394988  6.68789607
   3.86722330  0.16597023  0.82669191
   3.86722330  5.45258383  0.82669191
   9.00774962  0.16597023  0.82669191
   9.00774962  5.45258383  0.82669191
   0.55040916  0.54130164  4.91565688
   0.55040916  5.82791544  4.91565688
   5.69093526  0.54130164  4.91565688
   5.69093526  5.82791544  4.91565688
   0.55040916  2.10200511  2.59893127
   0.55040916  7.38861828  2.59893127
   5.69093526  2.10200511  2.59893127
   5.69093526  7.38861828  2.59893127
   2.01985392  3.18460838  6.35622501
   2.01985392  8.47122218  6.35622501
   7.16037994  3.18460838  6.35622501
   7.16037994  8.47122218  6.35622501
   2.01985392  4.74531185  1.15836258
   2.01985392 10.03192502  1.15836258
   7.16037994  4.74531185  1.15836258
   7.16037994 10.03192502  1.15836258
   4.59011739  4.74531185  2.59893127
   4.59011739 10.03192502  2.59893127
   9.73064372  4.74531185  2.59893127
   9.73064372 10.03192502  2.59893127
   4.59011739  3.18460838  4.91565688
   4.59011739  8.47122218  4.91565688
   9.73064372  3.18460838  4.91565688
   9.73064372  8.47122218  4.91565688
   3.12067210  2.10200511  1.15836258
   3.12067210  7.38861828  1.15836258
   8.26119842  2.10200511  1.15836258
   8.26119842  7.38861828  1.15836258
   3.12067210  0.54130164  6.35622501
   3.12067210  5.82791544  6.35622501
   8.26119842  0.54130164  6.35622501
   8.26119842  5.82791544  6.35622501
   0.25799298  1.32165337  0.00000000
   0.25799298  6.60826686  0.00000000
   5.39851957  1.32165337  0.00000000
   5.39851957  6.60826686  0.00000000
   2.31227022  3.96496011  3.75729396
   2.31227022  9.25157360  3.75729396
   7.45279686  3.96496011  3.75729396
   7.45279686  9.25157360  3.75729396
   4.88253308  3.96496011  0.00000000
   4.88253308  9.25157360  0.00000000
  10.02305941  3.96496011  0.00000000
  10.02305941  9.25157360  0.00000000
   2.82825641  1.32165337  3.75729396
   2.82825641  6.60826686  3.75729396
   7.96878274  1.32165337  3.75729396
   7.96878274  6.60826686  3.75729396



--------------------------------------------------------------------------------------------------------


 k-point   1 :   0.1250 0.1250 0.1250  plane waves:   14838
 k-point   2 :   0.3750 0.1250 0.1250  plane waves:   14851
 k-point   3 :   0.1250 0.3750 0.1250  plane waves:   14855
 k-point   4 :   0.3750 0.3750 0.1250  plane waves:   14835
 k-point   5 :   0.1250 0.1250 0.3750  plane waves:   14846
 k-point   6 :   0.3750 0.1250 0.3750  plane waves:   14846
 k-point   7 :   0.1250 0.3750 0.3750  plane waves:   14833
 k-point   8 :   0.3750 0.3750 0.3750  plane waves:   14832

 maximum and minimum number of plane-waves per node :     14855    14832

 maximum number of plane-waves:     14855
 maximum index in each direction: 
   IXMAX=   16   IYMAX=   17   IZMAX=   12
   IXMIN=  -17   IYMIN=  -17   IZMIN=  -12


 serial   3D FFT for wavefunctions
 parallel 3D FFT for charge:
    minimum data exchange during FFTs selected (reduces bandwidth)


 total amount of memory used by VASP MPI-rank0   585142. kBytes
=======================================================================

   base      :      30000. kBytes
   nonlr-proj:       9016. kBytes
   fftplans  :      30148. kBytes
   grid      :      53611. kBytes
   one-center:        245. kBytes
   wavefun   :     462122. kBytes

     INWAV:  cpu time      0.0002: real time      0.0003
 Broyden mixing: mesh for mixing (old mesh)
   NGX = 33   NGY = 35   NGZ = 25
  (NGX  =100   NGY  =108   NGZ  = 80)
  gives a total of  28875 points

 initial charge density was supplied:
 charge density of overlapping atoms calculated
 number of electron     384.0000000 magnetization 
 keeping initial charge density in first step


--------------------------------------------------------------------------------------------------------


 Maximum index for non-local projection operator         1421
 Maximum index for augmentation-charges         4988 (set IRDMAX)


--------------------------------------------------------------------------------------------------------


 First call to EWALD:  gamma=   0.190
 Maximum number of real-space cells 3x 2x 3
 Maximum number of reciprocal cells 3x 3x 2

    FEWALD:  cpu time      0.0897: real time      0.0902


--------------------------------------- Iteration      1(   1)  ---------------------------------------


    POTLOK:  cpu time      0.4906: real time      0.4939
    SETDIJ:  cpu time      0.0917: real time      0.0921
     EDDAV:  cpu time     59.9872: real time     60.5498
       DOS:  cpu time      0.0025: real time      0.0027
    --------------------------------------------
      LOOP:  cpu time     60.5720: real time     61.1385

 eigenvalue-minimisations  :  3728
 total energy-change (2. order) : 0.1846505E+04  (-0.1700610E+05)
 number of electron     384.0000000 magnetization 
 augmentation part      384.0000000 magnetization 

 Free energy of the ion-electron system (eV)
  ---------------------------------------------------
  alpha Z        PSCENC =       505.72663043
  Ewald energy   TEWEN  =    -18210.88073593
  -Hartree energ DENC   =     -5467.29117575
  -exchange      EXHF   =         0.00000000
  -V(xc)+E(xc)   XCENC  =       498.11421617
  PAW double counting   =     18752.77991877   -17816.57094691
  entropy T*S    EENTRO =        -0.00031707
  eigenvalues    EBANDS =      1122.77336425
  atomic energy  EATOM  =     22461.85434800
  Solvation  Ediel_sol  =         0.00000000
  ---------------------------------------------------
  free energy    TOTEN  =      1846.50530195 eV

  energy without entropy =     1846.50561902  energy(sigma->0) =     1846.50540764


--------------------------------------------------------------------------------------------------------




--------------------------------------- Iteration      1(   2)  ---------------------------------------


     EDDAV:  cpu time     70.1137: real time     70.7748
       DOS:  cpu time      0.0022: real time      0.0025
    --------------------------------------------
      LOOP:  cpu time     70.1159: real time     70.7773

 eigenvalue-minimisations  :  4512
 total energy-change (2. order) :-0.2333934E+04  (-0.2275370E+04)
 number of electron     384.0000000 magnetization 
 augmentation part      384.0000000 magnetization 

 Free energy of the ion-electron system (eV)
  ---------------------------------------------------
  alpha Z        PSCENC =       505.72663043
  Ewald energy   TEWEN  =    -18210.88073593
  -Hartree energ DENC   =     -5467.29117575
  -exchange      EXHF   =         0.00000000
  -V(xc)+E(xc)   XCENC  =       498.11421617
  PAW double counting   =     18752.77991877   -17816.57094691
  entropy T*S    EENTRO =         0.00018851
  eigenvalues    EBANDS =     -1211.16081699
  atomic energy  EATOM  =     22461.85434800
  Solvation  Ediel_sol  =         0.00000000
  ---------------------------------------------------
  free energy    TOTEN  =      -487.42837371 eV

  energy without entropy =     -487.42856221  energy(sigma->0) =     -487.42843654


--------------------------------------------------------------------------------------------------------




--------------------------------------- Iteration      1(   3)  ---------------------------------------


     EDDAV:  cpu time     67.8788: real time     68.5237
       DOS:  cpu time      0.0025: real time      0.0028
    --------------------------------------------
      LOOP:  cpu time     67.8814: real time     68.5265

 eigenvalue-minimisations  :  4320
 total energy-change (2. order) :-0.1512333E+03  (-0.1501867E+03)
 number of electron     384.0000000 magnetization 
 augmentation part      384.0000000 magnetization 

 Free energy of the ion-electron system (eV)
  ---------------------------------------------------
  alpha Z        PSCENC =       505.72663043
  Ewald energy   TEWEN  =    -18210.88073593
  -Hartree energ DENC   =     -5467.29117575
  -exchange      EXHF   =         0.00000000
  -V(xc)+E(xc)   XCENC  =       498.11421617
  PAW double counting   =     18752.77991877   -17816.57094691
  entropy T*S    EENTRO =         0.00298184
  eigenvalues    EBANDS =     -1362.39694452
  atomic energy  EATOM  =     22461.85434800
  Solvation  Ediel_sol  =         0.00000000
  ---------------------------------------------------
  free energy    TOTEN  =      -638.66170790 eV

  energy without entropy =     -638.66468975  energy(sigma->0) =     -638.66270185


--------------------------------------------------------------------------------------------------------




--------------------------------------- Iteration      1(   4)  ---------------------------------------


     EDDAV:  cpu time     68.2850: real time     68.9252
       DOS:  cpu time      0.0025: real time      0.0028
    --------------------------------------------
      LOOP:  cpu time     68.2875: real time     68.9280

 eigenvalue-minimisations  :  4352
 total energy-change (2. order) :-0.2291780E+01  (-0.2278565E+01)
 number of electron     384.0000000 magnetization 
 augmentation part      384.0000000 magnetization 

 Free energy of the ion-electron system (eV)
  ---------------------------------------------------
  alpha Z        PSCENC =       505.72663043
  Ewald energy   TEWEN  =    -18210.88073593
  -Hartree energ DENC   =     -5467.29117575
  -exchange      EXHF   =         0.00000000
  -V(xc)+E(xc)   XCENC  =       498.11421617
  PAW double counting   =     18752.77991877   -17816.57094691
  entropy T*S    EENTRO =         0.00303097
  eigenvalues    EBANDS =     -1364.68877323
  atomic energy  EATOM  =     22461.85434800
  Solvation  Ediel_sol  =         0.00000000
  ---------------------------------------------------
  free energy    TOTEN  =      -640.95348749 eV

  energy without entropy =     -640.95651845  energy(sigma->0) =     -640.95449781


--------------------------------------------------------------------------------------------------------




--------------------------------------- Iteration      1(   5)  ---------------------------------------


     EDDAV:  cpu time     67.1231: real time     67.7512
       DOS:  cpu time      0.0025: real time      0.0028
    CHARGE:  cpu time      2.3766: real time      2.3968
    MIXING:  cpu time      0.0137: real time      0.0138
    --------------------------------------------
      LOOP:  cpu time     69.5159: real time     70.1646

 eigenvalue-minimisations  :  4280
 total energy-change (2. order) :-0.5310048E-01  (-0.5297267E-01)
 number of electron     383.9999034 magnetization 
 augmentation part       36.1849468 magnetization 

 Broyden mixing:
  rms(total) = 0.46254E+01    rms(broyden)= 0.46236E+01
  rms(prec ) = 0.61162E+01
  weight for this iteration     100.00

 Free energy of the ion-electron system (eV)
  ---------------------------------------------------
  alpha Z        PSCENC =       505.72663043
  Ewald energy   TEWEN  =    -18210.88073593
  -Hartree energ DENC   =     -5467.29117575
  -exchange      EXHF   =         0.00000000
  -V(xc)+E(xc)   XCENC  =       498.11421617
  PAW double counting   =     18752.77991877   -17816.57094691
  entropy T*S    EENTRO =         0.00301548
  eigenvalues    EBANDS =     -1364.74185823
  atomic energy  EATOM  =     22461.85434800
  Solvation  Ediel_sol  =         0.00000000
  ---------------------------------------------------
  free energy    TOTEN  =      -641.00658797 eV

  energy without entropy =     -641.00960345  energy(sigma->0) =     -641.00759313


--------------------------------------------------------------------------------------------------------




--------------------------------------- Iteration      1(   6)  ---------------------------------------


    POTLOK:  cpu time      0.4341: real time      0.4370
    SETDIJ:  cpu time      0.0808: real time      0.0812
     EDDAV:  cpu time     64.6265: real time     65.2241
       DOS:  cpu time      0.0025: real time      0.0027
    CHARGE:  cpu time      2.3886: real time      2.4148
    MIXING:  cpu time      0.0150: real time      0.0151
    --------------------------------------------
      LOOP:  cpu time     67.5474: real time     68.1749

 eigenvalue-minimisations  :  4088
 total energy-change (2. order) : 0.6203287E+02  (-0.3131058E+02)
 number of electron     383.9999205 magnetization 
 augmentation part       29.5592878 magnetization 

 Broyden mixing:
  rms(total) = 0.16995E+01    rms(broyden)= 0.16964E+01
  rms(prec ) = 0.18788E+01
  weight for this iteration     100.00

 eigenvalues of (default mixing * dielectric matrix)
  average eigenvalue GAMMA=   0.8565
  0.8565

 Free energy of the ion-electron system (eV)
  ---------------------------------------------------
  alpha Z        PSCENC =       505.72663043
  Ewald energy   TEWEN  =    -18210.88073593
  -Hartree energ DENC   =     -6245.58700917
  -exchange      EXHF   =         0.00000000
  -V(xc)+E(xc)   XCENC  =       551.14343053
  PAW double counting   =     22966.44660477   -22042.58075055
  entropy T*S    EENTRO =         0.00253005
  eigenvalues    EBANDS =      -565.09876415
  atomic energy  EATOM  =     22461.85434800
  Solvation  Ediel_sol  =         0.00000000
  ---------------------------------------------------
  free energy    TOTEN  =      -578.97371602 eV

  energy without entropy =     -578.97624607  energy(sigma->0) =     -578.97455937


--------------------------------------------------------------------------------------------------------




--------------------------------------- Iteration      1(   7)  ---------------------------------------


    POTLOK:  cpu time      0.4411: real time      0.4446
    SETDIJ:  cpu time      0.0806: real time      0.0811
     EDDAV:  cpu time     65.9677: real time     66.5831
       DOS:  cpu time      0.0025: real time      0.0027
    CHARGE:  cpu time      2.3735: real time      2.3939
    MIXING:  cpu time      0.0158: real time      0.0159
    --------------------------------------------
      LOOP:  cpu time     68.8810: real time     69.5213

 eigenvalue-minimisations  :  4200
 total energy-change (2. order) : 0.3081201E+00  (-0.5571986E+00)
 number of electron     383.9999203 magnetization 
 augmentation part       29.7253047 magnetization 

 Broyden mixing:
  rms(total) = 0.93430E+00    rms(broyden)= 0.93425E+00
  rms(prec ) = 0.10631E+01
  weight for this iteration     100.00

 eigenvalues of (default mixing * dielectric matrix)
  average eigenvalue GAMMA=   1.2820
  1.0408  1.5233

 Free energy of the ion-electron system (eV)
  ---------------------------------------------------
  alpha Z        PSCENC =       505.72663043
  Ewald energy   TEWEN  =    -18210.88073593
  -Hartree energ DENC   =     -6242.50420255
  -exchange      EXHF   =         0.00000000
  -V(xc)+E(xc)   XCENC  =       551.49869082
  PAW double counting   =     25253.61759291   -24327.22735444
  entropy T*S    EENTRO =         0.00241070
  eigenvalues    EBANDS =      -570.75297586
  atomic energy  EATOM  =     22461.85434800
  Solvation  Ediel_sol  =         0.00000000
  ---------------------------------------------------
  free energy    TOTEN  =      -578.66559591 eV

  energy without entropy =     -578.66800661  energy(sigma->0) =     -578.66639948


--------------------------------------------------------------------------------------------------------




--------------------------------------- Iteration      1(   8)  ---------------------------------------


    POTLOK:  cpu time      0.4380: real time      0.4413
    SETDIJ:  cpu time      0.0805: real time      0.0810
     EDDAV:  cpu time     66.2315: real time     66.8460
       DOS:  cpu time      0.0025: real time      0.0027
    CHARGE:  cpu time      2.3749: real time      2.3955
    MIXING:  cpu time      0.0172: real time      0.0173
    --------------------------------------------
      LOOP:  cpu time     69.1445: real time     69.7839

 eigenvalue-minimisations  :  4224
 total energy-change (2. order) : 0.2180551E+00  (-0.7583431E-01)
 number of electron     383.9999202 magnetization 
 augmentation part       29.7713974 magnetization 

 Broyden mixing:
  rms(total) = 0.26804E+00    rms(broyden)= 0.26803E+00
  rms(prec ) = 0.31321E+00
  weight for this iteration     100.00

 eigenvalues of (default mixing * dielectric matrix)
  average eigenvalue GAMMA=   1.5303
  2.5067  1.0422  1.0422

 Free energy of the ion-electron system (eV)
  ---------------------------------------------------
  alpha Z        PSCENC =       505.72663043
  Ewald energy   TEWEN  =    -18210.88073593
  -Hartree energ DENC   =     -6265.13971866
  -exchange      EXHF   =         0.00000000
  -V(xc)+E(xc)   XCENC  =       554.11256289
  PAW double counting   =     27284.22276090   -26356.24665766
  entropy T*S    EENTRO =         0.00299448
  eigenvalues    EBANDS =      -552.09972526
  atomic energy  EATOM  =     22461.85434800
  Solvation  Ediel_sol  =         0.00000000
  ---------------------------------------------------
  free energy    TOTEN  =      -578.44754082 eV

  energy without entropy =     -578.45053530  energy(sigma->0) =     -578.44853898


--------------------------------------------------------------------------------------------------------




--------------------------------------- Iteration      1(   9)  ---------------------------------------


    POTLOK:  cpu time      0.4418: real time      0.4454
    SETDIJ:  cpu time      0.0810: real time      0.0814
     EDDAV:  cpu time     66.4910: real time     67.1119
       DOS:  cpu time      0.0024: real time      0.0027
    CHARGE:  cpu time      2.3846: real time      2.4057
    MIXING:  cpu time      0.0179: real time      0.0182
    --------------------------------------------
      LOOP:  cpu time     69.4186: real time     70.0653

 eigenvalue-minimisations  :  4248
 total energy-change (2. order) :-0.4351623E-01  (-0.1466331E-01)
 number of electron     383.9999203 magnetization 
 augmentation part       29.7273247 magnetization 

 Broyden mixing:
  rms(total) = 0.72894E-01    rms(broyden)= 0.72890E-01
  rms(prec ) = 0.75591E-01
  weight for this iteration     100.00

 eigenvalues of (default mixing * dielectric matrix)
  average eigenvalue GAMMA=   1.7008
  0.9817  0.9817  2.5977  2.2422

 Free energy of the ion-electron system (eV)
  ---------------------------------------------------
  alpha Z        PSCENC =       505.72663043
  Ewald energy   TEWEN  =    -18210.88073593
  -Hartree energ DENC   =     -6287.30802324
  -exchange      EXHF   =         0.00000000
  -V(xc)+E(xc)   XCENC  =       556.28026665
  PAW double counting   =     27918.58699469   -26990.18345257
  entropy T*S    EENTRO =         0.00324440
  eigenvalues    EBANDS =      -532.57032949
  atomic energy  EATOM  =     22461.85434800
  Solvation  Ediel_sol  =         0.00000000
  ---------------------------------------------------
  free energy    TOTEN  =      -578.49105704 eV

  energy without entropy =     -578.49430145  energy(sigma->0) =     -578.49213851


--------------------------------------------------------------------------------------------------------




--------------------------------------- Iteration      1(  10)  ---------------------------------------


    POTLOK:  cpu time      0.4429: real time      0.4517
    SETDIJ:  cpu time      0.0805: real time      0.0810
     EDDAV:  cpu time     68.1115: real time     68.7616
       DOS:  cpu time      0.0025: real time      0.0027
    CHARGE:  cpu time      2.3835: real time      2.4047
    MIXING:  cpu time      0.0186: real time      0.0187
    --------------------------------------------
      LOOP:  cpu time     71.0394: real time     71.7204

 eigenvalue-minimisations  :  4376
 total energy-change (2. order) :-0.7024633E-02  (-0.1423142E-02)
 number of electron     383.9999204 magnetization 
 augmentation part       29.6994889 magnetization 

 Broyden mixing:
  rms(total) = 0.23039E-01    rms(broyden)= 0.23030E-01
  rms(prec ) = 0.26238E-01
  weight for this iteration     100.00

 eigenvalues of (default mixing * dielectric matrix)
  average eigenvalue GAMMA=   1.5953
  2.7757  2.3798  0.9786  0.9786  0.8636

 Free energy of the ion-electron system (eV)
  ---------------------------------------------------
  alpha Z        PSCENC =       505.72663043
  Ewald energy   TEWEN  =    -18210.88073593
  -Hartree energ DENC   =     -6290.94982600
  -exchange      EXHF   =         0.00000000
  -V(xc)+E(xc)   XCENC  =       556.60851121
  PAW double counting   =     27611.79014469   -26683.51318105
  entropy T*S    EENTRO =         0.00314599
  eigenvalues    EBANDS =      -529.13711901
  atomic energy  EATOM  =     22461.85434800
  Solvation  Ediel_sol  =         0.00000000
  ---------------------------------------------------
  free energy    TOTEN  =      -578.49808168 eV

  energy without entropy =     -578.50122767  energy(sigma->0) =     -578.49913034


--------------------------------------------------------------------------------------------------------




--------------------------------------- Iteration      1(  11)  ---------------------------------------


    POTLOK:  cpu time      0.4505: real time      0.4541
    SETDIJ:  cpu time      0.0809: real time      0.0814
     EDDAV:  cpu time     66.7991: real time     67.4217
       DOS:  cpu time      0.0025: real time      0.0027
    CHARGE:  cpu time      2.3878: real time      2.4093
    MIXING:  cpu time      0.0204: real time      0.0205
    --------------------------------------------
      LOOP:  cpu time     69.7412: real time     70.3897

 eigenvalue-minimisations  :  4272
 total energy-change (2. order) : 0.2021159E-03  (-0.2523487E-03)
 number of electron     383.9999204 magnetization 
 augmentation part       29.7157482 magnetization 

 Broyden mixing:
  rms(total) = 0.89136E-02    rms(broyden)= 0.89102E-02
  rms(prec ) = 0.99070E-02
  weight for this iteration     100.00

 eigenvalues of (default mixing * dielectric matrix)
  average eigenvalue GAMMA=   1.5636
  2.8074  2.3862  0.9791  0.9791  1.1150  1.1150

 Free energy of the ion-electron system (eV)
  ---------------------------------------------------
  alpha Z        PSCENC =       505.72663043
  Ewald energy   TEWEN  =    -18210.88073593
  -Hartree energ DENC   =     -6289.57974299
  -exchange      EXHF   =         0.00000000
  -V(xc)+E(xc)   XCENC  =       556.52755494
  PAW double counting   =     27551.55279137   -26623.24600656
  entropy T*S    EENTRO =         0.00315937
  eigenvalues    EBANDS =      -530.45587819
  atomic energy  EATOM  =     22461.85434800
  Solvation  Ediel_sol  =         0.00000000
  ---------------------------------------------------
  free energy    TOTEN  =      -578.49787956 eV

  energy without entropy =     -578.50103893  energy(sigma->0) =     -578.49893268


--------------------------------------------------------------------------------------------------------




--------------------------------------- Iteration      1(  12)  ---------------------------------------


    POTLOK:  cpu time      0.4553: real time      0.4590
    SETDIJ:  cpu time      0.0803: real time      0.0808
     EDDAV:  cpu time     66.7457: real time     67.3644
       DOS:  cpu time      0.0025: real time      0.0027
    CHARGE:  cpu time      2.3970: real time      2.4237
    MIXING:  cpu time      0.0224: real time      0.0226
    --------------------------------------------
      LOOP:  cpu time     69.7031: real time     70.3531

 eigenvalue-minimisations  :  4272
 total energy-change (2. order) :-0.2786586E-04  (-0.9598564E-04)
 number of electron     383.9999203 magnetization 
 augmentation part       29.7188975 magnetization 

 Broyden mixing:
  rms(total) = 0.47482E-02    rms(broyden)= 0.47417E-02
  rms(prec ) = 0.53568E-02
  weight for this iteration     100.00

 eigenvalues of (default mixing * dielectric matrix)
  average eigenvalue GAMMA=   1.4787
  2.8743  2.4141  1.2702  1.0218  1.0218  0.8743  0.8743

 Free energy of the ion-electron system (eV)
  ---------------------------------------------------
  alpha Z        PSCENC =       505.72663043
  Ewald energy   TEWEN  =    -18210.88073593
  -Hartree energ DENC   =     -6289.45862611
  -exchange      EXHF   =         0.00000000
  -V(xc)+E(xc)   XCENC  =       556.51799835
  PAW double counting   =     27531.52683079   -26603.22099424
  entropy T*S    EENTRO =         0.00317016
  eigenvalues    EBANDS =      -530.56652888
  atomic energy  EATOM  =     22461.85434800
  Solvation  Ediel_sol  =         0.00000000
  ---------------------------------------------------
  free energy    TOTEN  =      -578.49790743 eV

  energy without entropy =     -578.50107758  energy(sigma->0) =     -578.49896415


--------------------------------------------------------------------------------------------------------




--------------------------------------- Iteration      1(  13)  ---------------------------------------


    POTLOK:  cpu time      0.4645: real time      0.4682
    SETDIJ:  cpu time      0.0845: real time      0.0849
     EDDAV:  cpu time     71.2397: real time     71.9183
       DOS:  cpu time      0.0025: real time      0.0027
    CHARGE:  cpu time      2.3883: real time      2.4098
    MIXING:  cpu time      0.0238: real time      0.0240
    --------------------------------------------
      LOOP:  cpu time     74.2033: real time     74.9079

 eigenvalue-minimisations  :  4632
 total energy-change (2. order) : 0.1013473E-04  (-0.1209844E-04)
 number of electron     383.9999203 magnetization 
 augmentation part       29.7210608 magnetization 

 Broyden mixing:
  rms(total) = 0.23991E-02    rms(broyden)= 0.23982E-02
  rms(prec ) = 0.26514E-02
  weight for this iteration     100.00

 eigenvalues of (default mixing * dielectric matrix)
  average eigenvalue GAMMA=   1.5307
  2.8693  2.3639  2.1799  1.0261  1.0261  0.9153  0.9326  0.9326

 Free energy of the ion-electron system (eV)
  ---------------------------------------------------
  alpha Z        PSCENC =       505.72663043
  Ewald energy   TEWEN  =    -18210.88073593
  -Hartree energ DENC   =     -6289.21715262
  -exchange      EXHF   =         0.00000000
  -V(xc)+E(xc)   XCENC  =       556.50100946
  PAW double counting   =     27522.62491912   -26594.31182831
  entropy T*S    EENTRO =         0.00316069
  eigenvalues    EBANDS =      -530.79824814
  atomic energy  EATOM  =     22461.85434800
  Solvation  Ediel_sol  =         0.00000000
  ---------------------------------------------------
  free energy    TOTEN  =      -578.49789729 eV

  energy without entropy =     -578.50105798  energy(sigma->0) =     -578.49895086


--------------------------------------------------------------------------------------------------------




--------------------------------------- Iteration      1(  14)  ---------------------------------------


    POTLOK:  cpu time      0.4567: real time      0.4604
    SETDIJ:  cpu time      0.0805: real time      0.0810
     EDDAV:  cpu time     65.7597: real time     66.3793
       DOS:  cpu time      0.0025: real time      0.0027
    CHARGE:  cpu time      2.3980: real time      2.4192
    MIXING:  cpu time      0.0249: real time      0.0252
    --------------------------------------------
      LOOP:  cpu time     68.7223: real time     69.3678

 eigenvalue-minimisations  :  4200
 total energy-change (2. order) : 0.5656140E-05  (-0.4038877E-05)
 number of electron     383.9999203 magnetization 
 augmentation part       29.7195872 magnetization 

 Broyden mixing:
  rms(total) = 0.58721E-03    rms(broyden)= 0.58562E-03
  rms(prec ) = 0.61427E-03
  weight for this iteration     100.00

 eigenvalues of (default mixing * dielectric matrix)
  average eigenvalue GAMMA=   1.5462
  2.9850  2.6102  2.3404  1.2011  1.0136  1.0136  0.9011  0.9254  0.9254

 Free energy of the ion-electron system (eV)
  ---------------------------------------------------
  alpha Z        PSCENC =       505.72663043
  Ewald energy   TEWEN  =    -18210.88073593
  -Hartree energ DENC   =     -6289.37536235
  -exchange      EXHF   =         0.00000000
  -V(xc)+E(xc)   XCENC  =       556.50904444
  PAW double counting   =     27518.19316961   -26589.88070421
  entropy T*S    EENTRO =         0.00315702
  eigenvalues    EBANDS =      -530.64743865
  atomic energy  EATOM  =     22461.85434800
  Solvation  Ediel_sol  =         0.00000000
  ---------------------------------------------------
  free energy    TOTEN  =      -578.49789164 eV

  energy without entropy =     -578.50104866  energy(sigma->0) =     -578.49894398


--------------------------------------------------------------------------------------------------------




--------------------------------------- Iteration      1(  15)  ---------------------------------------


    POTLOK:  cpu time      0.4558: real time      0.4595
    SETDIJ:  cpu time      0.0807: real time      0.0812
     EDDAV:  cpu time     45.2227: real time     45.6597
       DOS:  cpu time      0.0026: real time      0.0029
    --------------------------------------------
      LOOP:  cpu time     45.7619: real time     46.2032

 eigenvalue-minimisations  :  2528
 total energy-change (2. order) : 0.9455107E-08  (-0.1859231E-06)
 number of electron     383.9999203 magnetization 
 augmentation part       29.7195872 magnetization 

 Free energy of the ion-electron system (eV)
  ---------------------------------------------------
  alpha Z        PSCENC =       505.72663043
  Ewald energy   TEWEN  =    -18210.88073593
  -Hartree energ DENC   =     -6289.40518489
  -exchange      EXHF   =         0.00000000
  -V(xc)+E(xc)   XCENC  =       556.51033876
  PAW double counting   =     27515.75919962   -26587.44622039
  entropy T*S    EENTRO =         0.00315665
  eigenvalues    EBANDS =      -530.61942387
  atomic energy  EATOM  =     22461.85434800
  Solvation  Ediel_sol  =         0.00000000
  ---------------------------------------------------
  free energy    TOTEN  =      -578.49789163 eV

  energy without entropy =     -578.50104828  energy(sigma->0) =     -578.49894384


--------------------------------------------------------------------------------------------------------




 average (electrostatic) potential at core
  the test charge radii are     1.0406  0.7215
  (the norm of the test charge is              1.0000)
       1 -74.2112       2 -74.2112       3 -74.2112       4 -74.2112       5 -74.2112
       6 -74.2113       7 -74.2112       8 -74.2112       9 -74.2112      10 -74.2112
      11 -74.2112      12 -74.2113      13 -74.2112      14 -74.2113      15 -74.2113
      16 -74.2113      17 -74.2112      18 -74.2113      19 -74.2112      20 -74.2112
      21 -74.2112      22 -74.2112      23 -74.2112      24 -74.2112      25 -74.2112
      26 -74.2113      27 -74.2112      28 -74.2112      29 -74.2112      30 -74.2112
      31 -74.2112      32 -74.2112      33 -68.8352      34 -68.8352      35 -68.8352
      36 -68.8352      37 -68.8352      38 -68.8352      39 -68.8352      40 -68.8352
      41 -68.8352      42 -68.8352      43 -68.8352      44 -68.8352      45 -68.8352
      46 -68.8352      47 -68.8352      48 -68.8352      49 -68.8352      50 -68.8352
      51 -68.8352      52 -68.8352      53 -68.8352      54 -68.8352      55 -68.8352
      56 -68.8352      57 -68.8352      58 -68.8352      59 -68.8352      60 -68.8352
      61 -68.8352      62 -68.8352      63 -68.8352      64 -68.8352      65 -68.7701
      66 -68.7701      67 -68.7701      68 -68.7701      69 -68.7701      70 -68.7701
      71 -68.7701      72 -68.7701      73 -68.7701      74 -68.7701      75 -68.7701
      76 -68.7701      77 -68.7701      78 -68.7701      79 -68.7701      80 -68.7701



 E-fermi :   4.4329     XC(G=0): -10.8882     alpha+bet :-14.0160

 Fermi energy:         4.4328599693

 k-point     1 :       0.1250    0.1250    0.1250
  band No.  band energies     occupation 
      1     -13.4620      2.00000
      2     -13.0165      2.00000
      3     -13.0042      2.00000
      4     -12.7570      2.00000
      5     -12.7499      2.00000
      6     -12.7362      2.00000
      7     -12.6219      2.00000
      8     -12.4124      2.00000
      9     -12.4102      2.00000
     10     -12.3654      2.00000
     11     -12.3621      2.00000
     12     -12.2536      2.00000
     13     -12.2030      2.00000
     14     -12.1600      2.00000
     15     -12.0473      2.00000
     16     -12.0097      2.00000
     17     -11.9981      2.00000
     18     -11.9469      2.00000
     19     -11.9077      2.00000
     20     -11.8922      2.00000
     21     -11.8430      2.00000
     22     -11.8392      2.00000
     23     -11.8211      2.00000
     24     -11.7754      2.00000
     25     -11.7723      2.00000
     26     -11.7673      2.00000
     27     -11.7396      2.00000
     28     -11.7030      2.00000
     29     -11.6839      2.00000
     30     -11.6458      2.00000
     31     -11.6180      2.00000
     32     -11.5922      2.00000
     33     -11.5227      2.00000
     34     -11.4986      2.00000
     35     -11.4977      2.00000
     36     -11.4914      2.00000
     37     -11.4769      2.00000
     38     -11.4636      2.00000
     39     -11.4632      2.00000
     40     -11.4603      2.00000
     41     -11.4156      2.00000
     42     -11.4090      2.00000
     43     -11.4003      2.00000
     44     -11.3819      2.00000
     45     -11.3458      2.00000
     46     -11.3091      2.00000
     47     -11.2653      2.00000
     48     -11.2453      2.00000
     49      -1.0235      2.00000
     50      -1.0152      2.00000
     51      -0.8922      2.00000
     52      -0.8700      2.00000
     53      -0.8462      2.00000
     54      -0.8460      2.00000
     55      -0.7767      2.00000
     56      -0.6849      2.00000
     57      -0.6824      2.00000
     58      -0.6570      2.00000
     59      -0.6463      2.00000
     60      -0.6401      2.00000
     61      -0.5902      2.00000
     62      -0.5099      2.00000
     63      -0.5038      2.00000
     64      -0.4302      2.00000
     65      -0.3673      2.00000
     66      -0.2176      2.00000
     67      -0.1921      2.00000
     68       0.0322      2.00000
     69       0.0526      2.00000
     70       0.0772      2.00000
     71       0.1182      2.00000
     72       0.1462      2.00000
     73       0.1708      2.00000
     74       0.2042      2.00000
     75       0.2793      2.00000
     76       0.2974      2.00000
     77       0.4512      2.00000
     78       0.4557      2.00000
     79       0.5232      2.00000
     80       0.6506      2.00000
     81       0.6703      2.00000
     82       0.6791      2.00000
     83       0.7618      2.00000
     84       0.8221      2.00000
     85       0.8259      2.00000
     86       0.8449      2.00000
     87       0.8791      2.00000
     88       0.8841      2.00000
     89       0.9086      2.00000
     90       0.9429      2.00000
     91       0.9842      2.00000
     92       0.9943      2.00000
     93       1.0490      2.00000
     94       1.0618      2.00000
     95       1.0709      2.00000
     96       1.2712      2.00000
     97       1.2759      2.00000
     98       1.3318      2.00000
     99       1.3884      2.00000
    100       1.4842      2.00000
    101       1.5737      2.00000
    102       1.5792      2.00000
    103       1.6532      2.00000
    104       1.7093      2.00000
    105       1.7887      2.00000
    106       1.8346      2.00000
    107       1.8909      2.00000
    108       1.9042      2.00000
    109       1.9042      2.00000
    110       2.0675      2.00000
    111       2.0685      2.00000
    112       2.1502      2.00000
    113       2.1724      2.00000
    114       2.1737      2.00000
    115       2.2746      2.00000
    116       2.2790      2.00000
    117       2.2936      2.00000
    118       2.3001      2.00000
    119       2.3513      2.00000
    120       2.4186      2.00000
    121       2.4283      2.00000
    122       2.4526      2.00000
    123       2.4558      2.00000
    124       2.5609      2.00000
    125       2.5767      2.00000
    126       2.6013      2.00000
    127       2.6848      2.00000
    128       2.7285      2.00000
    129       2.7330      2.00000
    130       2.7747      2.00000
    131       2.8939      2.00000
    132       2.9314      2.00000
    133       2.9379      2.00000
    134       2.9406      2.00000
    135       2.9914      2.00000
    136       3.0773      2.00000
    137       3.0796      2.00000
    138       3.0813      2.00000
    139       3.1323      2.00000
    140       3.1347      2.00000
    141       3.1775      2.00000
    142       3.2343      2.00000
    143       3.2760      2.00000
    144       3.2887      2.00000
    145       3.2993      2.00000
    146       3.3021      2.00000
    147       3.3232      2.00000
    148       3.3547      2.00000
    149       3.4058      2.00000
    150       3.4239      2.00000
    151       3.4262      2.00000
    152       3.4525      2.00000
    153       3.4626      2.00000
    154       3.4992      2.00000
    155       3.5065      2.00000
    156       3.5136      2.00000
    157       3.5789      2.00000
    158       3.6174      2.00000
    159       3.6517      2.00000
    160       3.6757      2.00000
    161       3.6802      2.00000
    162       3.7047      2.00000
    163       3.7168      2.00000
    164       3.7360      2.00000
    165       3.7870      2.00000
    166       3.8177      2.00000
    167       3.8262      2.00000
    168       3.8866      2.00000
    169       3.9138      2.00000
    170       3.9333      2.00000
    171       3.9478      2.00000
    172       3.9871      2.00000
    173       3.9902      2.00000
    174       3.9913      2.00000
    175       4.0320      2.00000
    176       4.0778      2.00000
    177       4.1031      2.00000
    178       4.1167      2.00000
    179       4.1526      2.00000
    180       4.1775      2.00000
    181       4.2202      2.00000
    182       4.2585      2.00000
    183       4.2623      2.00000
    184       4.2746      2.00000
    185       4.2845      2.00000
    186       4.3253      2.00000
    187       4.3485      2.00004
    188       4.3729      2.00524
    189       4.3776      2.01051
    190       4.3790      2.01269
    191       4.3917      2.04780
    192       4.4163      1.87254
    193       8.1477      0.00000
    194      10.1057      0.00000
    195      10.1427      0.00000
    196      10.8525      0.00000
    197      10.8671      0.00000
    198      11.0151      0.00000
    199      11.1638      0.00000
    200      11.2882      0.00000
    201      11.4286      0.00000
[...]
     0.000000000 10.573226969  0.000000000     0.000000000  0.094578505  0.000000000
     0.000000000  0.000000000  7.514587928     0.000000000  0.000000000  0.133074496

  length of vectors
    10.281052653 10.573226969  7.514587928     0.097266305  0.094578505  0.133074496


 FORCES acting on ions
    electron-ion (+dipol)            ewald-force                    non-local-force                 convergence-correction
 -----------------------------------------------------------------------------------------------
   0.290E+01 -.253E+01 0.145E+02   -.287E+01 0.616E+00 -.138E+02   -.343E-01 0.160E+01 -.499E+00   0.253E-04 -.180E-05 0.125E-03
   0.290E+01 -.253E+01 0.145E+02   -.287E+01 0.616E+00 -.138E+02   -.343E-01 0.160E+01 -.499E+00   0.253E-04 0.187E-05 0.125E-03
   0.290E+01 -.253E+01 0.145E+02   -.287E+01 0.616E+00 -.138E+02   -.343E-01 0.160E+01 -.499E+00   0.234E-04 -.180E-05 0.125E-03
   0.290E+01 -.253E+01 0.145E+02   -.287E+01 0.616E+00 -.138E+02   -.343E-01 0.160E+01 -.499E+00   0.234E-04 0.187E-05 0.125E-03
   0.290E+01 0.253E+01 -.145E+02   -.287E+01 -.616E+00 0.138E+02   -.343E-01 -.160E+01 0.499E+00   0.253E-04 0.662E-08 -.125E-03
   0.290E+01 0.253E+01 -.145E+02   -.287E+01 -.616E+00 0.138E+02   -.343E-01 -.160E+01 0.499E+00   0.253E-04 -.631E-07 -.125E-03
   0.290E+01 0.253E+01 -.145E+02   -.287E+01 -.616E+00 0.138E+02   -.343E-01 -.160E+01 0.499E+00   0.234E-04 0.363E-08 -.124E-03
   0.290E+01 0.253E+01 -.145E+02   -.287E+01 -.616E+00 0.138E+02   -.343E-01 -.160E+01 0.499E+00   0.234E-04 -.661E-07 -.124E-03
   -.290E+01 -.253E+01 -.145E+02   0.287E+01 0.616E+00 0.138E+02   0.343E-01 0.160E+01 0.499E+00   -.235E-04 0.620E-06 -.126E-03
   -.290E+01 -.253E+01 -.145E+02   0.287E+01 0.616E+00 0.138E+02   0.343E-01 0.160E+01 0.499E+00   -.235E-04 -.508E-06 -.126E-03
   -.290E+01 -.253E+01 -.145E+02   0.287E+01 0.616E+00 0.138E+02   0.343E-01 0.160E+01 0.499E+00   -.254E-04 0.618E-06 -.126E-03
   -.290E+01 -.253E+01 -.145E+02   0.287E+01 0.616E+00 0.138E+02   0.343E-01 0.160E+01 0.499E+00   -.254E-04 -.510E-06 -.126E-03
   -.290E+01 0.253E+01 0.145E+02   0.287E+01 -.616E+00 -.138E+02   0.343E-01 -.160E+01 -.499E+00   -.235E-04 0.183E-05 0.125E-03
   -.290E+01 0.253E+01 0.145E+02   0.287E+01 -.616E+00 -.138E+02   0.343E-01 -.160E+01 -.499E+00   -.234E-04 -.194E-05 0.125E-03
   -.290E+01 0.253E+01 0.145E+02   0.287E+01 -.616E+00 -.138E+02   0.343E-01 -.160E+01 -.499E+00   -.254E-04 0.183E-05 0.125E-03
   -.290E+01 0.253E+01 0.145E+02   0.287E+01 -.616E+00 -.138E+02   0.343E-01 -.160E+01 -.499E+00   -.254E-04 -.194E-05 0.125E-03
   -.290E+01 0.253E+01 -.145E+02   0.287E+01 -.616E+00 0.138E+02   0.343E-01 -.160E+01 0.499E+00   -.243E-04 0.183E-05 -.125E-03
   -.290E+01 0.253E+01 -.145E+02   0.287E+01 -.616E+00 0.138E+02   0.343E-01 -.160E+01 0.499E+00   -.243E-04 -.194E-05 -.124E-03
   -.290E+01 0.253E+01 -.145E+02   0.287E+01 -.616E+00 0.138E+02   0.343E-01 -.160E+01 0.499E+00   -.244E-04 0.183E-05 -.125E-03
   -.290E+01 0.253E+01 -.145E+02   0.287E+01 -.616E+00 0.138E+02   0.343E-01 -.160E+01 0.499E+00   -.244E-04 -.194E-05 -.124E-03
   -.290E+01 -.253E+01 0.145E+02   0.287E+01 0.616E+00 -.138E+02   0.343E-01 0.160E+01 -.499E+00   -.243E-04 0.616E-06 0.125E-03
   -.290E+01 -.253E+01 0.145E+02   0.287E+01 0.616E+00 -.138E+02   0.343E-01 0.160E+01 -.499E+00   -.243E-04 -.512E-06 0.125E-03
   -.290E+01 -.253E+01 0.145E+02   0.287E+01 0.616E+00 -.138E+02   0.343E-01 0.160E+01 -.499E+00   -.244E-04 0.617E-06 0.125E-03
   -.290E+01 -.253E+01 0.145E+02   0.287E+01 0.616E+00 -.138E+02   0.343E-01 0.160E+01 -.499E+00   -.244E-04 -.511E-06 0.125E-03
   0.290E+01 0.253E+01 0.145E+02   -.287E+01 -.616E+00 -.138E+02   -.343E-01 -.160E+01 -.499E+00   0.246E-04 0.618E-08 0.125E-03
   0.290E+01 0.253E+01 0.145E+02   -.287E+01 -.616E+00 -.138E+02   -.343E-01 -.160E+01 -.499E+00   0.245E-04 -.635E-07 0.125E-03
   0.290E+01 0.253E+01 0.145E+02   -.287E+01 -.616E+00 -.138E+02   -.343E-01 -.160E+01 -.499E+00   0.243E-04 0.675E-09 0.125E-03
   0.290E+01 0.253E+01 0.145E+02   -.287E+01 -.616E+00 -.138E+02   -.343E-01 -.160E+01 -.499E+00   0.243E-04 -.690E-07 0.125E-03
   0.290E+01 -.253E+01 -.145E+02   -.287E+01 0.616E+00 0.138E+02   -.343E-01 0.160E+01 0.499E+00   0.246E-04 -.180E-05 -.126E-03
   0.290E+01 -.253E+01 -.145E+02   -.287E+01 0.616E+00 0.138E+02   -.343E-01 0.160E+01 0.499E+00   0.246E-04 0.187E-05 -.125E-03
   0.290E+01 -.253E+01 -.145E+02   -.287E+01 0.616E+00 0.138E+02   -.343E-01 0.160E+01 0.499E+00   0.243E-04 -.180E-05 -.126E-03
   0.290E+01 -.253E+01 -.145E+02   -.287E+01 0.616E+00 0.138E+02   -.343E-01 0.160E+01 0.499E+00   0.243E-04 0.187E-05 -.125E-03
   0.599E+01 0.292E+01 -.164E+02   -.477E+01 -.227E+01 0.170E+02   -.133E+01 -.754E+00 -.778E+00   -.145E-03 0.659E-04 -.848E-03
   0.599E+01 0.292E+01 -.164E+02   -.477E+01 -.227E+01 0.170E+02   -.133E+01 -.754E+00 -.778E+00   -.145E-03 0.739E-04 -.848E-03
   0.599E+01 0.292E+01 -.164E+02   -.477E+01 -.227E+01 0.170E+02   -.133E+01 -.754E+00 -.778E+00   -.149E-03 0.659E-04 -.847E-03
   0.599E+01 0.292E+01 -.164E+02   -.477E+01 -.227E+01 0.170E+02   -.133E+01 -.754E+00 -.778E+00   -.149E-03 0.739E-04 -.848E-03
   0.599E+01 -.292E+01 0.164E+02   -.477E+01 0.227E+01 -.170E+02   -.133E+01 0.754E+00 0.778E+00   -.145E-03 -.703E-04 0.849E-03
   0.599E+01 -.292E+01 0.164E+02   -.477E+01 0.227E+01 -.170E+02   -.133E+01 0.754E+00 0.778E+00   -.145E-03 -.695E-04 0.849E-03
   0.599E+01 -.292E+01 0.164E+02   -.477E+01 0.227E+01 -.170E+02   -.133E+01 0.754E+00 0.778E+00   -.149E-03 -.703E-04 0.849E-03
   0.599E+01 -.292E+01 0.164E+02   -.477E+01 0.227E+01 -.170E+02   -.133E+01 0.754E+00 0.778E+00   -.149E-03 -.695E-04 0.849E-03
   -.599E+01 0.292E+01 0.164E+02   0.477E+01 -.227E+01 -.170E+02   0.133E+01 -.754E+00 0.778E+00   0.149E-03 0.717E-04 0.849E-03
   -.599E+01 0.292E+01 0.164E+02   0.477E+01 -.227E+01 -.170E+02   0.133E+01 -.754E+00 0.778E+00   0.149E-03 0.683E-04 0.849E-03
   -.599E+01 0.292E+01 0.164E+02   0.477E+01 -.227E+01 -.170E+02   0.133E+01 -.754E+00 0.778E+00   0.145E-03 0.716E-04 0.849E-03
   -.599E+01 0.292E+01 0.164E+02   0.477E+01 -.227E+01 -.170E+02   0.133E+01 -.754E+00 0.778E+00   0.145E-03 0.682E-04 0.849E-03
   -.599E+01 -.292E+01 -.164E+02   0.477E+01 0.227E+01 0.170E+02   0.133E+01 0.754E+00 -.778E+00   0.149E-03 -.655E-04 -.850E-03
   -.599E+01 -.292E+01 -.164E+02   0.477E+01 0.227E+01 0.170E+02   0.133E+01 0.754E+00 -.778E+00   0.149E-03 -.744E-04 -.850E-03
   -.599E+01 -.292E+01 -.164E+02   0.477E+01 0.227E+01 0.170E+02   0.133E+01 0.754E+00 -.778E+00   0.145E-03 -.655E-04 -.850E-03
   -.599E+01 -.292E+01 -.164E+02   0.477E+01 0.227E+01 0.170E+02   0.133E+01 0.754E+00 -.778E+00   0.145E-03 -.744E-04 -.851E-03
   -.599E+01 -.292E+01 0.164E+02   0.477E+01 0.227E+01 -.170E+02   0.133E+01 0.754E+00 0.778E+00   0.147E-03 -.655E-04 0.849E-03
   -.599E+01 -.292E+01 0.164E+02   0.477E+01 0.227E+01 -.170E+02   0.133E+01 0.754E+00 0.778E+00   0.147E-03 -.744E-04 0.849E-03
   -.599E+01 -.292E+01 0.164E+02   0.477E+01 0.227E+01 -.170E+02   0.133E+01 0.754E+00 0.778E+00   0.148E-03 -.655E-04 0.849E-03
   -.599E+01 -.292E+01 0.164E+02   0.477E+01 0.227E+01 -.170E+02   0.133E+01 0.754E+00 0.778E+00   0.148E-03 -.744E-04 0.850E-03
   -.599E+01 0.292E+01 -.164E+02   0.477E+01 -.227E+01 0.170E+02   0.133E+01 -.754E+00 -.778E+00   0.147E-03 0.716E-04 -.848E-03
   -.599E+01 0.292E+01 -.164E+02   0.477E+01 -.227E+01 0.170E+02   0.133E+01 -.754E+00 -.778E+00   0.147E-03 0.682E-04 -.847E-03
   -.599E+01 0.292E+01 -.164E+02   0.477E+01 -.227E+01 0.170E+02   0.133E+01 -.754E+00 -.778E+00   0.148E-03 0.717E-04 -.848E-03
   -.599E+01 0.292E+01 -.164E+02   0.477E+01 -.227E+01 0.170E+02   0.133E+01 -.754E+00 -.778E+00   0.148E-03 0.682E-04 -.848E-03
   0.599E+01 -.292E+01 -.164E+02   -.477E+01 0.227E+01 0.170E+02   -.133E+01 0.754E+00 -.778E+00   -.146E-03 -.703E-04 -.850E-03
   0.599E+01 -.292E+01 -.164E+02   -.477E+01 0.227E+01 0.170E+02   -.133E+01 0.754E+00 -.778E+00   -.146E-03 -.695E-04 -.850E-03
   0.599E+01 -.292E+01 -.164E+02   -.477E+01 0.227E+01 0.170E+02   -.133E+01 0.754E+00 -.778E+00   -.149E-03 -.703E-04 -.850E-03
   0.599E+01 -.292E+01 -.164E+02   -.477E+01 0.227E+01 0.170E+02   -.133E+01 0.754E+00 -.778E+00   -.149E-03 -.695E-04 -.850E-03
   0.599E+01 0.292E+01 0.164E+02   -.477E+01 -.227E+01 -.170E+02   -.133E+01 -.754E+00 0.778E+00   -.146E-03 0.659E-04 0.849E-03
   0.599E+01 0.292E+01 0.164E+02   -.477E+01 -.227E+01 -.170E+02   -.133E+01 -.754E+00 0.778E+00   -.146E-03 0.739E-04 0.849E-03
   0.599E+01 0.292E+01 0.164E+02   -.477E+01 -.227E+01 -.170E+02   -.133E+01 -.754E+00 0.778E+00   -.149E-03 0.659E-04 0.849E-03
   0.599E+01 0.292E+01 0.164E+02   -.477E+01 -.227E+01 -.170E+02   -.133E+01 -.754E+00 0.778E+00   -.149E-03 0.739E-04 0.849E-03
   -.177E+02 -.520E-04 -.486E-04   0.183E+02 0.101E-04 0.346E-04   -.779E+00 0.285E-18 -.865E-19   -.309E-03 -.257E-05 -.160E-05
   -.177E+02 -.501E-04 -.452E-04   0.183E+02 -.362E-05 0.411E-05   -.779E+00 0.711E-19 0.105E-18   -.309E-03 0.256E-05 -.775E-06
   -.177E+02 -.520E-04 -.486E-04   0.183E+02 0.101E-04 0.346E-04   -.779E+00 0.119E-18 0.149E-18   -.312E-03 -.257E-05 -.160E-05
   -.177E+02 -.501E-04 -.452E-04   0.183E+02 -.362E-05 0.411E-05   -.779E+00 0.643E-19 -.106E-18   -.312E-03 0.256E-05 -.775E-06
   0.177E+02 -.515E-04 -.343E-04   -.183E+02 -.122E-05 -.160E-04   0.779E+00 -.372E-19 -.176E-18   0.312E-03 0.354E-05 0.834E-06
   0.177E+02 -.528E-04 -.309E-04   -.183E+02 0.133E-04 -.367E-04   0.779E+00 -.316E-18 -.231E-18   0.312E-03 -.355E-05 0.157E-05
   0.177E+02 -.515E-04 -.343E-04   -.183E+02 -.122E-05 -.160E-04   0.779E+00 -.618E-19 -.201E-19   0.309E-03 0.354E-05 0.834E-06
   0.177E+02 -.528E-04 -.309E-04   -.183E+02 0.133E-04 -.367E-04   0.779E+00 -.119E-18 0.145E-18   0.309E-03 -.355E-05 0.157E-05
   0.177E+02 -.504E-04 -.417E-04   -.183E+02 -.337E-05 0.101E-04   0.779E+00 -.315E-18 -.168E-18   0.310E-03 0.354E-05 -.818E-06
   0.177E+02 -.516E-04 -.451E-04   -.183E+02 0.112E-04 0.308E-04   0.779E+00 0.712E-20 0.793E-19   0.310E-03 -.355E-05 -.156E-05
   0.177E+02 -.504E-04 -.417E-04   -.183E+02 -.337E-05 0.101E-04   0.779E+00 -.338E-18 0.670E-19   0.312E-03 0.354E-05 -.818E-06
   0.177E+02 -.516E-04 -.451E-04   -.183E+02 0.112E-04 0.308E-04   0.779E+00 -.178E-18 0.756E-19   0.312E-03 -.355E-05 -.156E-05
   -.177E+02 -.533E-04 -.344E-04   0.183E+02 0.123E-04 -.405E-04   -.779E+00 -.813E-19 -.173E-18   -.309E-03 -.257E-05 0.161E-05
   -.177E+02 -.515E-04 -.377E-04   0.183E+02 -.148E-05 -.100E-04   -.779E+00 0.173E-18 -.625E-19   -.309E-03 0.256E-05 0.791E-06
   -.177E+02 -.533E-04 -.344E-04   0.183E+02 0.123E-04 -.405E-04   -.779E+00 -.773E-19 0.262E-18   -.312E-03 -.257E-05 0.161E-05
   -.177E+02 -.515E-04 -.377E-04   0.183E+02 -.148E-05 -.100E-04   -.779E+00 -.148E-19 0.151E-18   -.312E-03 0.256E-05 0.791E-06
 -----------------------------------------------------------------------------------------------
   0.548E-02 -.267E-02 -.843E-03   0.263E-12 -.747E-13 0.988E-13   0.200E-14 -.244E-14 0.222E-15   0.137E-06 -.169E-07 0.834E-08


 POSITION                                       TOTAL-FORCE (eV/Angst)
 -----------------------------------------------------------------------------------
      1.29696      0.16597      2.93060        -0.002655     -0.314267      0.231541
      1.29696      5.45258      2.93060        -0.002655     -0.314267      0.231541
      6.43749      0.16597      2.93060        -0.002655     -0.314267      0.231541
      6.43749      5.45258      2.93060        -0.002655     -0.314267      0.231541
      1.29696      2.47734      4.58399        -0.002655      0.314267     -0.231541
      1.29696      7.76395      4.58399        -0.002655      0.314267     -0.231541
      6.43749      2.47734      4.58399        -0.002655      0.314267     -0.231541
      6.43749      7.76395      4.58399        -0.002655      0.314267     -0.231541
      1.27330      2.80928      0.82669         0.002655     -0.314267     -0.231541
      1.27330      8.09589      0.82669         0.002655     -0.314267     -0.231541
      6.41383      2.80928      0.82669         0.002655     -0.314267     -0.231541
      6.41383      8.09589      0.82669         0.002655     -0.314267     -0.231541
      1.27330      5.12064      6.68790         0.002655      0.314267      0.231541
      1.27330     10.40726      6.68790         0.002655      0.314267      0.231541
      6.41383      5.12064      6.68790         0.002655      0.314267      0.231541
      6.41383     10.40726      6.68790         0.002655      0.314267      0.231541
      3.84357      5.12064      4.58399         0.002655      0.314267     -0.231541
      3.84357     10.40726      4.58399         0.002655      0.314267     -0.231541
      8.98409      5.12064      4.58399         0.002655      0.314267     -0.231541
      8.98409     10.40726      4.58399         0.002655      0.314267     -0.231541
      3.84357      2.80928      2.93060         0.002655     -0.314267      0.231541
      3.84357      8.09589      2.93060         0.002655     -0.314267      0.231541
      8.98409      2.80928      2.93060         0.002655     -0.314267      0.231541
      8.98409      8.09589      2.93060         0.002655     -0.314267      0.231541
      3.86722      2.47734      6.68790        -0.002655      0.314267      0.231541
      3.86722      7.76395      6.68790        -0.002655      0.314267      0.231541
      9.00775      2.47734      6.68790        -0.002655      0.314267      0.231541
      9.00775      7.76395      6.68790        -0.002655      0.314267      0.231541
      3.86722      0.16597      0.82669        -0.002655     -0.314267     -0.231541
      3.86722      5.45258      0.82669        -0.002655     -0.314267     -0.231541
      9.00775      0.16597      0.82669        -0.002655     -0.314267     -0.231541
      9.00775      5.45258      0.82669        -0.002655     -0.314267     -0.231541
      0.55041      0.54130      4.91566        -0.099130     -0.098284     -0.143849
      0.55041      5.82792      4.91566        -0.099130     -0.098284     -0.143849
      5.69094      0.54130      4.91566        -0.099130     -0.098284     -0.143849
      5.69094      5.82792      4.91566        -0.099130     -0.098284     -0.143849
      0.55041      2.10201      2.59893        -0.099130      0.098284      0.143849
      0.55041      7.38862      2.59893        -0.099130      0.098284      0.143849
      5.69094      2.10201      2.59893        -0.099130      0.098284      0.143849
      5.69094      7.38862      2.59893        -0.099130      0.098284      0.143849
      2.01985      3.18461      6.35623         0.099130     -0.098284      0.143849
      2.01985      8.47122      6.35623         0.099130     -0.098284      0.143849
      7.16038      3.18461      6.35623         0.099130     -0.098284      0.143849
      7.16038      8.47122      6.35623         0.099130     -0.098284      0.143849
      2.01985      4.74531      1.15836         0.099130      0.098284     -0.143849
      2.01985     10.03193      1.15836         0.099130      0.098284     -0.143849
      7.16038      4.74531      1.15836         0.099130      0.098284     -0.143849
      7.16038     10.03193      1.15836         0.099130      0.098284     -0.143849
      4.59012      4.74531      2.59893         0.099130      0.098284      0.143849
      4.59012     10.03193      2.59893         0.099130      0.098284      0.143849
      9.73064      4.74531      2.59893         0.099130      0.098284      0.143849
      9.73064     10.03193      2.59893         0.099130      0.098284      0.143849
      4.59012      3.18461      4.91566         0.099130     -0.098284     -0.143849
      4.59012      8.47122      4.91566         0.099130     -0.098284     -0.143849
      9.73064      3.18461      4.91566         0.099130     -0.098284     -0.143849
      9.73064      8.47122      4.91566         0.099130     -0.098284     -0.143849
      3.12067      2.10201      1.15836        -0.099130      0.098284     -0.143849
      3.12067      7.38862      1.15836        -0.099130      0.098284     -0.143849
      8.26120      2.10201      1.15836        -0.099130      0.098284     -0.143849
      8.26120      7.38862      1.15836        -0.099130      0.098284     -0.143849
      3.12067      0.54130      6.35623        -0.099130     -0.098284      0.143849
      3.12067      5.82792      6.35623        -0.099130     -0.098284      0.143849
      8.26120      0.54130      6.35623        -0.099130     -0.098284      0.143849
      8.26120      5.82792      6.35623        -0.099130     -0.098284      0.143849
      0.25799      1.32165      0.00000        -0.174992     -0.000000     -0.000000
      0.25799      6.60827      0.00000        -0.174992     -0.000000     -0.000000
      5.39852      1.32165      0.00000        -0.174992     -0.000000     -0.000000
      5.39852      6.60827      0.00000        -0.174992     -0.000000     -0.000000
      2.31227      3.96496      3.75729         0.174992     -0.000000     -0.000000
      2.31227      9.25157      3.75729         0.174992     -0.000000     -0.000000
      7.45280      3.96496      3.75729         0.174992     -0.000000     -0.000000
      7.45280      9.25157      3.75729         0.174992     -0.000000     -0.000000
      4.88253      3.96496      0.00000         0.174992     -0.000000     -0.000000
      4.88253      9.25157      0.00000         0.174992     -0.000000     -0.000000
     10.02306      3.96496      0.00000         0.174992     -0.000000     -0.000000
     10.02306      9.25157      0.00000         0.174992     -0.000000     -0.000000
      2.82826      1.32165      3.75729        -0.174992     -0.000000     -0.000000
      2.82826      6.60827      3.75729        -0.174992     -0.000000     -0.000000
      7.96878      1.32165      3.75729        -0.174992     -0.000000     -0.000000
      7.96878      6.60827      3.75729        -0.174992     -0.000000     -0.000000
 -----------------------------------------------------------------------------------
    total drift:                                0.005478     -0.002666     -0.000843


--------------------------------------------------------------------------------------------------------



  FREE ENERGIE OF THE ION-ELECTRON SYSTEM (eV)
  ---------------------------------------------------
  free  energy   TOTEN  =      -578.49789163 eV

  energy  without entropy=     -578.50104828  energy(sigma->0) =     -578.49894384



--------------------------------------------------------------------------------------------------------


    POTLOK:  cpu time      0.4898: real time      0.5107


--------------------------------------------------------------------------------------------------------


 writing wavefunctions
     LOOP+:  cpu time   1082.4200: real time   1092.6293
    4ORBIT:  cpu time      0.0000: real time      0.0000

 total amount of memory used by VASP MPI-rank0   585142. kBytes
=======================================================================

   base      :      30000. kBytes
   nonlr-proj:       9016. kBytes
   fftplans  :      30148. kBytes
   grid      :      53611. kBytes
   one-center:        245. kBytes
   wavefun   :     462122. kBytes

  
  
 General timing and accounting informations for this job:
 ========================================================
  
                  Total CPU time used (sec):     1093.889
                            User time (sec):     1090.866
                          System time (sec):        3.023
                         Elapsed time (sec):     1189.919
  
                   Maximum memory used (kb):      778580.
                   Average memory used (kb):          N/A
  
                          Minor page faults:       415178
                          Major page faults:            1
                 Voluntary context switches:         1123
