 vasp.6.3.0 20Jan22 (build Jul  1 2024 12:21:46) complex                         
 executed on             LinuxGNU date 2024.10.21  12:38:21
 running    1 mpi-ranks, with    1 threads/rank
 distrk:  each k-point on    1 cores,    1 groups
 distr:  one band on NCORE=   1 cores,    1 groups


--------------------------------------------------------------------------------------------------------


 INCAR:
   SYSTEM = Alumina_orthorombic_cell_under_strain
   ISTART = 0
   ICHARG = 2
   ENCUT = 400
   ALGO = Normal
   PREC = Normal
   ISPIN = 1
   LWAVE = T             (Write WAVECAR)
   LCHARG = T             (Write CHGCAR)
   NPAR = 1
   EDIFF = 1E-6
   NSW = 0
   NELM = 100
   POTIM = 0.5
   IBRION = -1
   ISMEAR = 1
   SIGMA = 0.026
   EDIFFG = -0.001
   ISIF = 2
   LREAL = Auto

 POTCAR:    PAW_PBE Al 04Jan2001                  
 POTCAR:    PAW_PBE O 08Apr2002                   
 POTCAR:    PAW_PBE Al 04Jan2001                  
   SHA256 =  17880443556af62b473fe41b62a467bd001ad55d2cabe504a3f22e34d4e9db96 Al/POTCAR             
   COPYR  = (c) Copyright 04Jan2001 Georg Kresse                                                    
   COPYR  = This file is part of the software VASP. Any use, copying, and all other rights are regul
   COPYR  = If you do not have a valid VASP license, you may not use, copy or distribute this file. 
   VRHFIN =Al: s2p1                                                                                 
   LEXCH  = PE                                                                                      
   EATOM  =    53.5387 eV,    3.9350 Ry                                                             
                                                                                                    
   TITEL  = PAW_PBE Al 04Jan2001                                                                    
   LULTRA =        F    use ultrasoft PP ?                                                          
   IUNSCR =        1    unscreen: 0-lin 1-nonlin 2-no                                               
   RPACOR =    1.500    partial core radius                                                         
   POMASS =   26.981; ZVAL   =    3.000    mass and valenz                                          
   RCORE  =    1.900    outmost cutoff radius                                                       
   RWIGS  =    2.650; RWIGS  =    1.402    wigner-seitz radius (au A)                               
   ENMAX  =  240.300; ENMIN  =  180.225 eV                                                          
   ICORE  =        2    local potential                                                             
   LCOR   =        T    correct aug charges                                                         
   LPAW   =        T    paw PP                                                                      
   EAUG   =  291.052                                                                                
   DEXC   =    0.000                                                                                
   RMAX   =    1.939    core radius for proj-oper                                                   
   RAUG   =    1.300    factor for augmentation sphere                                              
   RDEP   =    1.966    radius for radial grids                                                     
   RDEPT  =    1.856    core radius for aug-charge                                                  
                                                                                                    
   Atomic configuration                                                                             
    6 entries                                                                                       
     n  l   j            E        occ.                                                              
     1  0  0.50     -1511.1048   2.0000                                                             
     2  0  0.50      -108.1629   2.0000                                                             
     2  1  1.50       -69.6402   6.0000                                                             
     3  0  0.50        -7.7528   2.0000                                                             
     3  1  1.50        -2.7121   1.0000                                                             
     3  2  2.50        -2.7212   0.0000                                                             
   Description                                                                                      
     l       E           TYP  RCUT    TYP  RCUT                                                     
     0     -7.7528455     23  1.900                                                                 
     0     -3.3096929     23  1.900                                                                 
     1     -2.7120682     23  1.900                                                                 
     1     13.6058260     23  1.900                                                                 
     2     -2.7211652      7  1.900                                                                 
  local pseudopotential read in
  partial core-charges read in
  partial kinetic energy density read in
  atomic valenz-charges read in
  non local Contribution for L=           0  read in
    real space projection operators read in
  non local Contribution for L=           0  read in
    real space projection operators read in
  non local Contribution for L=           1  read in
    real space projection operators read in
  non local Contribution for L=           1  read in
    real space projection operators read in
    PAW grid and wavefunctions read in

   number of l-projection  operators is LMAX  =           4
   number of lm-projection operators is LMMAX =           8

 POTCAR:    PAW_PBE O 08Apr2002                   
   SHA256 =  818f92134a0a090dccd8ba1447fa70422a3b330e708bb4f08108d8ae51209ddf O/POTCAR              
   COPYR  = (c) Copyright 08Apr2002 Georg Kresse                                                    
   COPYR  = This file is part of the software VASP. Any use, copying, and all other rights are regul
   COPYR  = If you do not have a valid VASP license, you may not use, copy or distribute this file. 
   VRHFIN =O: s2p4                                                                                  
   LEXCH  = PE                                                                                      
   EATOM  =   432.3788 eV,   31.7789 Ry                                                             
                                                                                                    
   TITEL  = PAW_PBE O 08Apr2002                                                                     
   LULTRA =        F    use ultrasoft PP ?                                                          
   IUNSCR =        1    unscreen: 0-lin 1-nonlin 2-no                                               
   RPACOR =    1.200    partial core radius                                                         
   POMASS =   16.000; ZVAL   =    6.000    mass and valenz                                          
   RCORE  =    1.520    outmost cutoff radius                                                       
   RWIGS  =    1.550; RWIGS  =    0.820    wigner-seitz radius (au A)                               
   ENMAX  =  400.000; ENMIN  =  300.000 eV                                                          
   ICORE  =        2    local potential                                                             
   LCOR   =        T    correct aug charges                                                         
   LPAW   =        T    paw PP                                                                      
   EAUG   =  605.392                                                                                
   DEXC   =    0.000                                                                                
   RMAX   =    1.553    core radius for proj-oper                                                   
   RAUG   =    1.300    factor for augmentation sphere                                              
   RDEP   =    1.550    radius for radial grids                                                     
   RDEPT  =    1.329    core radius for aug-charge                                                  
                                                                                                    
   Atomic configuration                                                                             
    4 entries                                                                                       
     n  l   j            E        occ.                                                              
     1  0  0.50      -514.6923   2.0000                                                             
     2  0  0.50       -23.9615   2.0000                                                             
     2  1  0.50        -9.0305   4.0000                                                             
     3  2  1.50        -9.5241   0.0000                                                             
   Description                                                                                      
     l       E           TYP  RCUT    TYP  RCUT                                                     
     0    -23.9615318     23  1.200                                                                 
     0     -9.5240782     23  1.200                                                                 
     1     -9.0304911     23  1.520                                                                 
     1      8.1634956     23  1.520                                                                 
     2     -9.5240782      7  1.500                                                                 
  local pseudopotential read in
  partial core-charges read in
  partial kinetic energy density read in
  kinetic energy density of atom read in
  atomic valenz-charges read in
  non local Contribution for L=           0  read in
    real space projection operators read in
  non local Contribution for L=           0  read in
    real space projection operators read in
  non local Contribution for L=           1  read in
    real space projection operators read in
  non local Contribution for L=           1  read in
    real space projection operators read in
    PAW grid and wavefunctions read in

   number of l-projection  operators is LMAX  =           4
   number of lm-projection operators is LMMAX =           8

 Optimization of the real space projectors (new method)

 maximal supplied QI-value         = 19.84
 optimisation between [QCUT,QGAM] = [ 10.12, 20.44] = [ 28.68,116.96] Ry 
 Optimized for a Real-space Cutoff    1.23 Angstroem

   l    n(q)    QCUT    max X(q) W(low)/X(q) W(high)/X(q)  e(spline) 
   0      7    10.119   176.870    0.49E-04    0.18E-03    0.39E-07
   0      7    10.119   105.762    0.46E-04    0.18E-03    0.38E-07
   1      7    10.119    55.370    0.30E-03    0.37E-03    0.12E-06
   1      7    10.119    20.208    0.27E-03    0.35E-03    0.11E-06
 Optimization of the real space projectors (new method)

 maximal supplied QI-value         = 24.76
 optimisation between [QCUT,QGAM] = [ 10.15, 20.30] = [ 28.85,115.39] Ry 
 Optimized for a Real-space Cutoff    1.38 Angstroem

   l    n(q)    QCUT    max X(q) W(low)/X(q) W(high)/X(q)  e(spline) 
   0      8    10.150    20.381    0.22E-03    0.32E-03    0.29E-06
   0      8    10.150    15.268    0.23E-03    0.35E-03    0.30E-06
   1      8    10.150     5.964    0.46E-03    0.53E-03    0.21E-06
   1      8    10.150     5.382    0.38E-03    0.45E-03    0.19E-06
  PAW_PBE Al 04Jan2001                  :
 energy of atom  1       EATOM=  -53.5387
 kinetic energy error for atom=    0.0005 (will be added to EATOM!!)
  PAW_PBE O 08Apr2002                   :
 energy of atom  2       EATOM= -432.3788
 kinetic energy error for atom=    0.1156 (will be added to EATOM!!)


 POSCAR:    Al  O
  positions in direct lattice
  No initial velocities read in
 exchange correlation table for  LEXCH =        8
   RHO(1)=    0.500       N(1)  =     2000
   RHO(2)=  100.500       N(2)  =     4000



--------------------------------------------------------------------------------------------------------


 ion  position               nearest neighbor table
   1  0.126  0.016  0.390-  70 1.69  52 1.71  46 1.74  77 1.78  37 1.79  33 1.83   5 2.42  18 2.60
                            20 2.63  31 2.82  29 2.82  10 2.87   9 2.87   6 2.89  22 3.12  21 3.12
   2  0.126  0.516  0.390-  69 1.69  51 1.71  45 1.74  78 1.78  38 1.79  34 1.83   6 2.42  17 2.60
                            19 2.63  32 2.82  30 2.82   9 2.87  10 2.87   5 2.89  21 3.12  22 3.12
   3  0.626  0.016  0.390-  72 1.69  50 1.71  48 1.74  79 1.78  39 1.79  35 1.83   7 2.42  20 2.60
                            18 2.63  29 2.82  31 2.82  12 2.87  11 2.87   8 2.89  24 3.12  23 3.12
   4  0.626  0.516  0.390-  71 1.69  49 1.71  47 1.74  80 1.78  40 1.79  36 1.83   8 2.42  19 2.60
                            17 2.63  30 2.82  32 2.82  11 2.87  12 2.87   7 2.89  23 3.12  24 3.12
   5  0.126  0.234  0.610-  69 1.69  55 1.71  41 1.74  77 1.78  33 1.79  37 1.83   1 2.42  21 2.60
                            23 2.63  27 2.82  25 2.82  13 2.87  14 2.87   2 2.89  17 3.12  18 3.12
   6  0.126  0.734  0.610-  70 1.69  56 1.71  42 1.74  78 1.78  34 1.79  38 1.83   2 2.42  22 2.60
                            24 2.63  28 2.82  26 2.82  14 2.87  13 2.87   1 2.89  18 3.12  17 3.12
   7  0.626  0.234  0.610-  71 1.69  53 1.71  43 1.74  79 1.78  35 1.79  39 1.83   3 2.42  23 2.60
                            21 2.63  25 2.82  27 2.82  15 2.87  16 2.87   4 2.89  19 3.12  20 3.12
   8  0.626  0.734  0.610-  72 1.69  54 1.71  44 1.74  80 1.78  36 1.79  40 1.83   4 2.42  24 2.60
                            22 2.63  26 2.82  28 2.82  16 2.87  15 2.87   3 2.89  20 3.12  19 3.12
   9  0.124  0.266  0.110-  65 1.69  57 1.71  37 1.74  75 1.78  45 1.79  41 1.83  13 2.42  27 2.60
                            25 2.63  21 2.82  23 2.82   2 2.87   1 2.87  14 2.89  32 3.12  31 3.12
  10  0.124  0.766  0.110-  66 1.69  58 1.71  38 1.74  76 1.78  46 1.79  42 1.83  14 2.42  28 2.60
                            26 2.63  22 2.82  24 2.82   1 2.87   2 2.87  13 2.89  31 3.12  32 3.12
  11  0.624  0.266  0.110-  67 1.69  59 1.71  39 1.74  73 1.78  47 1.79  43 1.83  15 2.42  25 2.60
                            27 2.63  23 2.82  21 2.82   4 2.87   3 2.87  16 2.89  30 3.12  29 3.12
  12  0.624  0.766  0.110-  68 1.69  60 1.71  40 1.74  74 1.78  48 1.79  44 1.83  16 2.42  26 2.60
                            28 2.63  24 2.82  22 2.82   3 2.87   4 2.87  15 2.89  29 3.12  30 3.12
  13  0.124  0.484  0.890-  66 1.69  62 1.71  34 1.74  75 1.78  41 1.79  45 1.83   9 2.42  32 2.60
                            30 2.63  17 2.82  19 2.82   5 2.87   6 2.87  10 2.89  27 3.12  28 3.12
  14  0.124  0.984  0.890-  65 1.69  61 1.71  33 1.74  76 1.78  42 1.79  46 1.83  10 2.42  31 2.60
                            29 2.63  18 2.82  20 2.82   6 2.87   5 2.87   9 2.89  28 3.12  27 3.12
  15  0.624  0.484  0.890-  68 1.69  64 1.71  36 1.74  73 1.78  43 1.79  47 1.83  11 2.42  30 2.60
                            32 2.63  19 2.82  17 2.82   7 2.87   8 2.87  12 2.89  25 3.12  26 3.12
  16  0.624  0.984  0.890-  67 1.69  63 1.71  35 1.74  74 1.78  44 1.79  48 1.83  12 2.42  29 2.60
                            31 2.63  20 2.82  18 2.82   8 2.87   7 2.87  11 2.89  26 3.12  25 3.12
  17  0.374  0.484  0.610-  78 1.69  36 1.71  62 1.74  69 1.78  53 1.79  49 1.83  21 2.42   2 2.60
                             4 2.63  13 2.82  15 2.82  25 2.87  26 2.87  22 2.89   5 3.12   6 3.12
  18  0.374  0.984  0.610-  77 1.69  35 1.71  61 1.74  70 1.78  54 1.79  50 1.83  22 2.42   1 2.60
                             3 2.63  14 2.82  16 2.82  26 2.87  25 2.87  21 2.89   6 3.12   5 3.12
  19  0.874  0.484  0.610-  80 1.69  34 1.71  64 1.74  71 1.78  55 1.79  51 1.83  23 2.42   4 2.60
                             2 2.63  15 2.82  13 2.82  27 2.87  28 2.87  24 2.89   7 3.12   8 3.12
  20  0.874  0.984  0.610-  79 1.69  33 1.71  63 1.74  72 1.78  56 1.79  52 1.83  24 2.42   3 2.60
                             1 2.63  16 2.82  14 2.82  28 2.87  27 2.87  23 2.89   8 3.12   7 3.12
  21  0.374  0.266  0.390-  77 1.69  39 1.71  57 1.74  69 1.78  49 1.79  53 1.83  17 2.42   5 2.60
                             7 2.63   9 2.82  11 2.82  30 2.87  29 2.87  18 2.89   2 3.12   1 3.12
  22  0.374  0.766  0.390-  78 1.69  40 1.71  58 1.74  70 1.78  50 1.79  54 1.83  18 2.42   6 2.60
                             8 2.63  10 2.82  12 2.82  29 2.87  30 2.87  17 2.89   1 3.12   2 3.12
  23  0.874  0.266  0.390-  79 1.69  37 1.71  59 1.74  71 1.78  51 1.79  55 1.83  19 2.42   7 2.60
                             5 2.63  11 2.82   9 2.82  32 2.87  31 2.87  20 2.89   4 3.12   3 3.12
  24  0.874  0.766  0.390-  80 1.69  38 1.71  60 1.74  72 1.78  52 1.79  56 1.83  20 2.42   8 2.60
                             6 2.63  12 2.82  10 2.82  31 2.87  32 2.87  19 2.89   3 3.12   4 3.12
  25  0.376  0.234  0.890-  73 1.69  41 1.71  53 1.74  67 1.78  61 1.79  57 1.83  29 2.42  11 2.60
                             9 2.63   7 2.82   5 2.82  17 2.87  18 2.87  30 2.89  15 3.12  16 3.12
  26  0.376  0.734  0.890-  74 1.69  42 1.71  54 1.74  68 1.78  62 1.79  58 1.83  30 2.42  12 2.60
                            10 2.63   8 2.82   6 2.82  18 2.87  17 2.87  29 2.89  16 3.12  15 3.12
  27  0.876  0.234  0.890-  75 1.69  43 1.71  55 1.74  65 1.78  63 1.79  59 1.83  31 2.42   9 2.60
                            11 2.63   5 2.82   7 2.82  19 2.87  20 2.87  32 2.89  13 3.12  14 3.12
  28  0.876  0.734  0.890-  76 1.69  44 1.71  56 1.74  66 1.78  64 1.79  60 1.83  32 2.42  10 2.60
                            12 2.63   6 2.82   8 2.82  20 2.87  19 2.87  31 2.89  14 3.12  13 3.12
  29  0.376  0.016  0.110-  74 1.69  46 1.71  50 1.74  67 1.78  57 1.79  61 1.83  25 2.42  16 2.60
                            14 2.63   3 2.82   1 2.82  22 2.87  21 2.87  26 2.89  12 3.12  11 3.12
  30  0.376  0.516  0.110-  73 1.69  45 1.71  49 1.74  68 1.78  58 1.79  62 1.83  26 2.42  15 2.60
                            13 2.63   4 2.82   2 2.82  22 2.87  21 2.87  25 2.89  11 3.12  12 3.12
  31  0.876  0.016  0.110-  76 1.69  48 1.71  52 1.74  65 1.78  59 1.79  63 1.83  27 2.42  14 2.60
                            16 2.63   1 2.82   3 2.82  24 2.87  23 2.87  28 2.89  10 3.12   9 3.12
  32  0.876  0.516  0.110-  75 1.69  47 1.71  51 1.74  66 1.78  60 1.79  64 1.83  28 2.42  13 2.60
                            15 2.63   2 2.82   4 2.82  24 2.87  23 2.87  27 2.89   9 3.12  10 3.12
  33  0.054  0.051  0.654-  20 1.71  14 1.74   5 1.79   1 1.83
  34  0.054  0.551  0.654-  19 1.71  13 1.74   6 1.79   2 1.83
  35  0.554  0.051  0.654-  18 1.71  16 1.74   7 1.79   3 1.83
  36  0.554  0.551  0.654-  17 1.71  15 1.74   8 1.79   4 1.83
  37  0.054  0.199  0.346-  23 1.71   9 1.74   1 1.79   5 1.83
  38  0.054  0.699  0.346-  24 1.71  10 1.74   2 1.79   6 1.83
  39  0.554  0.199  0.346-  21 1.71  11 1.74   3 1.79   7 1.83
  40  0.554  0.699  0.346-  22 1.71  12 1.74   4 1.79   8 1.83
  41  0.196  0.301  0.846-  25 1.71   5 1.74  13 1.79   9 1.83
  42  0.196  0.801  0.846-  26 1.71   6 1.74  14 1.79  10 1.83
  43  0.696  0.301  0.846-  27 1.71   7 1.74  15 1.79  11 1.83
  44  0.696  0.801  0.846-  28 1.71   8 1.74  16 1.79  12 1.83
  45  0.196  0.449  0.154-  30 1.71   2 1.74   9 1.79  13 1.83
  46  0.196  0.949  0.154-  29 1.71   1 1.74  10 1.79  14 1.83
  47  0.696  0.449  0.154-  32 1.71   4 1.74  11 1.79  15 1.83
  48  0.696  0.949  0.154-  31 1.71   3 1.74  12 1.79  16 1.83
  49  0.446  0.449  0.346-   4 1.71  30 1.74  21 1.79  17 1.83
  50  0.446  0.949  0.346-   3 1.71  29 1.74  22 1.79  18 1.83
  51  0.946  0.449  0.346-   2 1.71  32 1.74  23 1.79  19 1.83
  52  0.946  0.949  0.346-   1 1.71  31 1.74  24 1.79  20 1.83
  53  0.446  0.301  0.654-   7 1.71  25 1.74  17 1.79  21 1.83
  54  0.446  0.801  0.654-   8 1.71  26 1.74  18 1.79  22 1.83
  55  0.946  0.301  0.654-   5 1.71  27 1.74  19 1.79  23 1.83
  56  0.946  0.801  0.654-   6 1.71  28 1.74  20 1.79  24 1.83
  57  0.304  0.199  0.154-   9 1.71  21 1.74  29 1.79  25 1.83
  58  0.304  0.699  0.154-  10 1.71  22 1.74  30 1.79  26 1.83
  59  0.804  0.199  0.154-  11 1.71  23 1.74  31 1.79  27 1.83
  60  0.804  0.699  0.154-  12 1.71  24 1.74  32 1.79  28 1.83
  61  0.304  0.051  0.846-  14 1.71  18 1.74  25 1.79  29 1.83
  62  0.304  0.551  0.846-  13 1.71  17 1.74  26 1.79  30 1.83
  63  0.804  0.051  0.846-  16 1.71  20 1.74  27 1.79  31 1.83
  64  0.804  0.551  0.846-  15 1.71  19 1.74  28 1.79  32 1.83
  65  0.025  0.125  0.000-  14 1.69   9 1.69  27 1.78  31 1.78
  66  0.025  0.625  0.000-  13 1.69  10 1.69  28 1.78  32 1.78
  67  0.525  0.125  0.000-  16 1.69  11 1.69  25 1.78  29 1.78
  68  0.525  0.625  0.000-  15 1.69  12 1.69  26 1.78  30 1.78
  69  0.225  0.375  0.500-   5 1.69   2 1.69  17 1.78  21 1.78
  70  0.225  0.875  0.500-   6 1.69   1 1.69  18 1.78  22 1.78
  71  0.725  0.375  0.500-   7 1.69   4 1.69  19 1.78  23 1.78
  72  0.725  0.875  0.500-   8 1.69   3 1.69  20 1.78  24 1.78
  73  0.475  0.375  0.000-  25 1.69  30 1.69  15 1.78  11 1.78
  74  0.475  0.875  0.000-  29 1.69  26 1.69  16 1.78  12 1.78
  75  0.975  0.375  0.000-  27 1.69  32 1.69  13 1.78   9 1.78
  76  0.975  0.875  0.000-  31 1.69  28 1.69  14 1.78  10 1.78
  77  0.275  0.125  0.500-  18 1.69  21 1.69   5 1.78   1 1.78
  78  0.275  0.625  0.500-  17 1.69  22 1.69   6 1.78   2 1.78
  79  0.775  0.125  0.500-  20 1.69  23 1.69   7 1.78   3 1.78
  80  0.775  0.625  0.500-  19 1.69  24 1.69   8 1.78   4 1.78

  LATTYP: Found a simple orthorhombic cell.
 ALAT       =     6.3909112284
 B/A-ratio  =     1.3681458986
 C/A-ratio  =     1.4070268484
  
  Lattice vectors:
  
 A1 = (   0.0000000000,   0.0000000000,   6.3909112284)
 A2 = (   8.7436989853,   0.0000000000,   0.0000000000)
 A3 = (   0.0000000000,   8.9921836843,   0.0000000000)


Analysis of symmetry for initial positions (statically):
=====================================================================
 Subroutine PRICEL returns following result:
 
  LATTYP: Found a simple orthorhombic cell.
 ALAT       =     4.3718494929
 B/A-ratio  =     1.0284187391
 C/A-ratio  =     1.4618323981
  
  Lattice vectors:
  
 A1 = (   4.3718494929,   0.0000000000,   0.0000000000)
 A2 = (   0.0000000000,   4.4960919429,   0.0000000000)
 A3 = (   0.0000000000,   0.0000000000,   6.3909112284)
 
   4 primitive cells build up your supercell.
 

 Routine SETGRP: Setting up the symmetry group for a 
 simple orthorhombic supercell.


 Subroutine GETGRP returns: Found  8 space group operations
 (whereof  2 operations were pure point group operations)
 out of a pool of  8 trial point group operations.


The static configuration has the point symmetry S_2 .
 The point group associated with its full space group is D_2h.


Analysis of symmetry for dynamics (positions and initial velocities):
=====================================================================
 Subroutine PRICEL returns following result:
 
  LATTYP: Found a simple orthorhombic cell.
 ALAT       =     4.3718494929
 B/A-ratio  =     1.0284187391
 C/A-ratio  =     1.4618323981
  
  Lattice vectors:
  
 A1 = (   4.3718494929,   0.0000000000,   0.0000000000)
 A2 = (   0.0000000000,   4.4960919429,   0.0000000000)
 A3 = (   0.0000000000,   0.0000000000,   6.3909112284)
 
   4 primitive cells build up your supercell.
 

 Routine SETGRP: Setting up the symmetry group for a 
 simple orthorhombic supercell.


 Subroutine GETGRP returns: Found  8 space group operations
 (whereof  2 operations were pure point group operations)
 out of a pool of  8 trial point group operations.


The dynamic configuration has the point symmetry S_2 .
 The point group associated with its full space group is D_2h.


Analysis of constrained symmetry for selective dynamics:
=====================================================================
 Subroutine PRICEL returns following result:
 
  LATTYP: Found a simple orthorhombic cell.
 ALAT       =     4.3718494929
 B/A-ratio  =     1.0284187391
 C/A-ratio  =     1.4618323981
  
  Lattice vectors:
  
 A1 = (   4.3718494929,   0.0000000000,   0.0000000000)
 A2 = (   0.0000000000,   4.4960919429,   0.0000000000)
 A3 = (   0.0000000000,   0.0000000000,   6.3909112284)
 
   4 primitive cells build up your supercell.
 

 Routine SETGRP: Setting up the symmetry group for a 
 simple orthorhombic supercell.


 Subroutine GETGRP returns: Found  8 space group operations
 (whereof  2 operations were pure point group operations)
 out of a pool of  8 trial point group operations.


The constrained configuration has the point symmetry S_2 .
 The point group associated with its full space group is D_2h.


 Subroutine INISYM returns: Found  8 space group operations
 (whereof  2 operations are pure point group operations),
 and found     4 'primitive' translations


----------------------------------------------------------------------------------------

                                     Primitive cell                                     

  volume of cell :     125.6213

  direct lattice vectors                    reciprocal lattice vectors
     4.371849493  0.000000000  0.000000000     0.228736145  0.000000000  0.000000000
     0.000000000  4.496091943  0.000000000     0.000000000  0.222415380  0.000000000
     0.000000000  0.000000000  6.390911228     0.000000000  0.000000000  0.156472209

  length of vectors
     4.371849493  4.496091943  6.390911228     0.228736145  0.222415380  0.156472209

  position of ions in fractional coordinates (direct lattice)
     0.252301010  0.031394432  0.389988368
     0.252301010  0.468605564  0.610011602
     0.247698990  0.531394421  0.110011610
     0.247698990  0.968605501  0.889988398
     0.747698961  0.968605501  0.610011602
     0.747698961  0.531394421  0.389988368
     0.752301039  0.468605564  0.889988398
     0.752301039  0.031394432  0.110011610
     0.107072531  0.102390997  0.654148561
     0.107072531  0.397608992  0.345851469
     0.392927454  0.602391023  0.845851439
     0.392927454  0.897608899  0.154148517
     0.892927514  0.897608899  0.345851469
     0.892927514  0.602391023  0.654148561
     0.607072486  0.397608992  0.154148517
     0.607072486  0.102390997  0.845851439
     0.050188047  0.249999994  0.000000000
     0.449811960  0.749999961  0.500000000
     0.949811900  0.749999961  0.000000000
     0.550188099  0.249999994  0.500000000

  ion indices of the primitive-cell ions
   primitive index   ion index
                 1           1
                 2           5
                 3          10
                 4          14
                 5          18
                 6          22
                 7          27
                 8          31
                 9          33
                10          37
                11          42
                12          46
                13          52
                14          56
                15          57
                16          61
                17          65
                18          70
                19          76
                20          77

----------------------------------------------------------------------------------------



 KPOINTS: k-points                                

Automatic generation of k-mesh.
 Grid dimensions read from file:
 generate k-points for:    4    4    4

 Generating k-lattice:

  Cartesian coordinates                     Fractional coordinates (reciprocal lattice)
     0.028592018  0.000000000  0.000000000     0.250000000  0.000000000  0.000000000
     0.000000000  0.027801923  0.000000000     0.000000000  0.250000000  0.000000000
     0.000000000  0.000000000  0.039118052     0.000000000  0.000000000  0.250000000

  Length of vectors
     0.028592018  0.027801923  0.039118052

  Shift w.r.t. Gamma in fractional coordinates (k-lattice)
     0.500000000  0.500000000  0.500000000

 
 Subroutine IBZKPT returns following result:
 ===========================================
 
 Found      8 irreducible k-points:
 
 Following reciprocal coordinates:
            Coordinates               Weight
  0.125000  0.125000  0.125000      8.000000
  0.375000  0.125000  0.125000      8.000000
  0.125000  0.375000  0.125000      8.000000
  0.375000  0.375000  0.125000      8.000000
  0.125000  0.125000  0.375000      8.000000
  0.375000  0.125000  0.375000      8.000000
  0.125000  0.375000  0.375000      8.000000
  0.375000  0.375000  0.375000      8.000000
 
 Following cartesian coordinates:
            Coordinates               Weight
  0.014296  0.013901  0.019559      8.000000
  0.042888  0.013901  0.019559      8.000000
  0.014296  0.041703  0.019559      8.000000
  0.042888  0.041703  0.019559      8.000000
  0.014296  0.013901  0.058677      8.000000
  0.042888  0.013901  0.058677      8.000000
  0.014296  0.041703  0.058677      8.000000
  0.042888  0.041703  0.058677      8.000000
 


--------------------------------------------------------------------------------------------------------




 Dimension of arrays:
   k-points           NKPTS =      8   k-points in BZ     NKDIM =      8   number of bands    NBANDS=    233
   number of dos      NEDOS =    301   number of ions     NIONS =     80
   non local maximal  LDIM  =      4   non local SUM 2l+1 LMDIM =      8
   total plane-waves  NPLWV =  73728
   max r-space proj   IRMAX =   1667   max aug-charges    IRDMAX=   5909
   dimension x,y,z NGX =    48 NGY =   48 NGZ =   32
   dimension x,y,z NGXF=    96 NGYF=   96 NGZF=   64
   support grid    NGXF=    96 NGYF=   96 NGZF=   64
   ions per type =              32  48
   NGX,Y,Z   is equivalent  to a cutoff of   9.13,  8.87,  8.32 a.u.
   NGXF,Y,Z  is equivalent  to a cutoff of  18.25, 17.75, 16.65 a.u.

 SYSTEM =  Alumina_orthorombic_cell_under_strain   
 POSCAR =     Al  O                                

 Startparameter for this run:
   NWRITE =      2    write-flag & timer
   PREC   = normal    normal or accurate (medium, high low for compatibility)
   ISTART =      0    job   : 0-new  1-cont  2-samecut
   ICHARG =      2    charge: 1-file 2-atom 10-const
   ISPIN  =      1    spin polarized calculation?
   LNONCOLLINEAR =      F non collinear calculations
   LSORBIT =      F    spin-orbit coupling
   INIWAV =      1    electr: 0-lowe 1-rand  2-diag
   LASPH  =      F    aspherical Exc in radial PAW
 Electronic Relaxation 1
   ENCUT  =  400.0 eV  29.40 Ry    5.42 a.u.  14.26 14.66 10.42*2*pi/ulx,y,z
   ENINI  =  400.0     initial cutoff
   ENAUG  =  605.4 eV  augmentation charge cutoff
   NELM   =    100;   NELMIN=  2; NELMDL= -5     # of ELM steps 
   EDIFF  = 0.1E-05   stopping-criterion for ELM
   LREAL  =      T    real-space projection
   NLSPLINE    = F    spline interpolate recip. space projectors
   LCOMPAT=      F    compatible to vasp.4.4
   GGA_COMPAT  = T    GGA compatible to vasp.4.4-vasp.4.6
   LMAXPAW     = -100 max onsite density
   LMAXMIX     =    2 max onsite mixed and CHGCAR
   VOSKOWN=      0    Vosko Wilk Nusair interpolation
   ROPT   =   -0.00050  -0.00050
 Ionic relaxation
   EDIFFG = -.1E-02   stopping-criterion for IOM
   NSW    =      0    number of steps for IOM
   NBLOCK =      1;   KBLOCK =      1    inner block; outer block 
   IBRION =     -1    ionic relax: 0-MD 1-quasi-New 2-CG
   NFREE  =      0    steps in history (QN), initial steepest desc. (CG)
   ISIF   =      2    stress and relaxation
   IWAVPR =     10    prediction:  0-non 1-charg 2-wave 3-comb
   ISYM   =      2    0-nonsym 1-usesym 2-fastsym
   LCORR  =      T    Harris-Foulkes like correction to forces

   POTIM  = 0.5000    time-step for ionic-motion
   TEIN   =    0.0    initial temperature
   TEBEG  =    0.0;   TEEND  =   0.0 temperature during run
   SMASS  =  -3.00    Nose mass-parameter (am)
   estimated Nose-frequenzy (Omega)   =  0.10E-29 period in steps = 0.13E+47 mass=  -0.175E-26a.u.
   SCALEE = 1.0000    scale energy and forces
   NPACO  =    256;   APACO  = 10.0  distance and # of slots for P.C.
   PSTRESS=    0.0 pullay stress

  Mass of Ions in am
   POMASS =  26.98 16.00
  Ionic Valenz
   ZVAL   =   3.00  6.00
  Atomic Wigner-Seitz radii
   RWIGS  =  -1.00 -1.00
  virtual crystal weights 
   VCA    =   1.00  1.00
   NELECT =     384.0000    total number of electrons
   NUPDOWN=      -1.0000    fix difference up-down

 DOS related values:
   EMIN   =  10.00;   EMAX   =-10.00  energy-range for DOS
   EFERMI =   0.00
   ISMEAR =     1;   SIGMA  =   0.03  broadening in eV -4-tet -1-fermi 0-gaus

 Electronic relaxation 2 (details)
   IALGO  =     38    algorithm
   LDIAG  =      T    sub-space diagonalisation (order eigenvalues)
   LSUBROT=      F    optimize rotation matrix (better conditioning)
   TURBO    =      0    0=normal 1=particle mesh
   IRESTART =      0    0=no restart 2=restart with 2 vectors
   NREBOOT  =      0    no. of reboots
   NMIN     =      0    reboot dimension
   EREF     =   0.00    reference energy to select bands
   IMIX   =      4    mixing-type and parameters
     AMIX     =   0.40;   BMIX     =  1.00
     AMIX_MAG =   1.60;   BMIX_MAG =  1.00
     AMIN     =   0.10
     WC   =   100.;   INIMIX=   1;  MIXPRE=   1;  MAXMIX= -45

 Intra band minimization:
   WEIMIN = 0.0000     energy-eigenvalue tresh-hold
   EBREAK =  0.11E-08  absolut break condition
   DEPER  =   0.30     relativ break condition  

   TIME   =   0.40     timestep for ELM

  volume/ion in A,a.u.               =       6.28        42.39
  Fermi-wavevector in a.u.,A,eV,Ry     =   1.496732  2.828414 30.479883  2.240208
  Thomas-Fermi vector in A             =   2.608711

 Write flags
   LWAVE        =      T    write WAVECAR
   LDOWNSAMPLE  =      F    k-point downsampling of WAVECAR
   LCHARG       =      T    write CHGCAR
   LVTOT        =      F    write LOCPOT, total local potential
   LVHAR        =      F    write LOCPOT, Hartree potential only
   LELF         =      F    write electronic localiz. function (ELF)
   LORBIT       =      0    0 simple, 1 ext, 2 COOP (PROOUT), +10 PAW based schemes


 Dipole corrections
   LMONO  =      F    monopole corrections only (constant potential shift)
   LDIPOL =      F    correct potential (dipole corrections)
   IDIPOL =      0    1-x, 2-y, 3-z, 4-all directions 
   EPSILON=  1.0000000 bulk dielectric constant

 Exchange correlation treatment:
   GGA     =    --    GGA type
   LEXCH   =     8    internal setting for exchange type
   LIBXC   =     F    Libxc                    
   VOSKOWN =     0    Vosko Wilk Nusair interpolation
   LHFCALC =     F    Hartree Fock is set to
   LHFONE  =     F    Hartree Fock one center treatment
   AEXX    =    0.0000 exact exchange contribution

 Linear response parameters
   LEPSILON=     F    determine dielectric tensor
   LRPA    =     F    only Hartree local field effects (RPA)
   LNABLA  =     F    use nabla operator in PAW spheres
   LVEL    =     F    velocity operator in full k-point grid
   CSHIFT  =0.1000    complex shift for real part using Kramers Kronig
   OMEGAMAX=  -1.0    maximum frequency
   DEG_THRESHOLD= 0.2000000E-02 threshold for treating states as degnerate
   RTIME   =   -0.100 relaxation time in fs
  (WPLASMAI=    0.000 imaginary part of plasma frequency in eV, 0.658/RTIME)
   DFIELD  = 0.0000000 0.0000000 0.0000000 field for delta impulse in time

  Optional k-point grid parameters
   LKPOINTS_OPT  =     F    use optional k-point grid
   KPOINTS_OPT_MODE=     1    mode for optional k-point grid

 Orbital magnetization related:
   ORBITALMAG=     F  switch on orbital magnetization
   LCHIMAG   =     F  perturbation theory with respect to B field
   DQ        =  0.001000  dq finite difference perturbation B field
   LLRAUG    =     F  two centre corrections for induced B field



--------------------------------------------------------------------------------------------------------


 Static calculation
 charge density and potential will be updated during run
 non-spin polarized calculation
 Variant of blocked Davidson
 Davidson routine will perform the subspace rotation
 perform sub-space diagonalisation
    after iterative eigenvector-optimisation
 modified Broyden-mixing scheme, WC =      100.0
 initial mixing is a Kerker type mixing with AMIX =  0.4000 and BMIX =      1.0000
 Hartree-type preconditioning will be used
 using additional bands           41
 real space projection scheme for non local part
 use partial core corrections
 calculate Harris-corrections to forces   (improved forces if not selfconsistent)
 use gradient corrections 
 use of overlap-Matrix (Vanderbilt PP)
 Methfessel and Paxton  Order N= 1 SIGMA  =   0.03


--------------------------------------------------------------------------------------------------------


  energy-cutoff  :      400.00
  volume of cell :      502.49
      direct lattice vectors                 reciprocal lattice vectors
     8.743698985  0.000000000  0.000000000     0.114368073  0.000000000  0.000000000
     0.000000000  8.992183684  0.000000000     0.000000000  0.111207693  0.000000000
     0.000000000  0.000000000  6.390911228     0.000000000  0.000000000  0.156472209

  length of vectors
     8.743698985  8.992183684  6.390911228     0.114368073  0.111207693  0.156472209



 k-points in units of 2pi/SCALE and weight: k-points                                
   0.01429601  0.01390096  0.01955903       0.125
   0.04288803  0.01390096  0.01955903       0.125
   0.01429601  0.04170288  0.01955903       0.125
   0.04288803  0.04170288  0.01955903       0.125
   0.01429601  0.01390096  0.05867708       0.125
   0.04288803  0.01390096  0.05867708       0.125
   0.01429601  0.04170288  0.05867708       0.125
   0.04288803  0.04170288  0.05867708       0.125

 k-points in reciprocal lattice and weights: k-points                                
   0.12500000  0.12500000  0.12500000       0.125
   0.37500000  0.12500000  0.12500000       0.125
   0.12500000  0.37500000  0.12500000       0.125
   0.37500000  0.37500000  0.12500000       0.125
   0.12500000  0.12500000  0.37500000       0.125
   0.37500000  0.12500000  0.37500000       0.125
   0.12500000  0.37500000  0.37500000       0.125
   0.37500000  0.37500000  0.37500000       0.125

 position of ions in fractional coordinates (direct lattice) 
   0.12615050  0.01569722  0.38998837
   0.12615050  0.51569723  0.38998837
   0.62615052  0.01569722  0.38998837
   0.62615052  0.51569723  0.38998837
   0.12615050  0.23430279  0.61001160
   0.12615050  0.73430277  0.61001160
   0.62615052  0.23430279  0.61001160
   0.62615052  0.73430277  0.61001160
   0.12384950  0.26569723  0.11001161
   0.12384950  0.76569723  0.11001161
   0.62384948  0.26569723  0.11001161
   0.62384948  0.76569723  0.11001161
   0.12384950  0.48430277  0.88998840
   0.12384950  0.98430277  0.88998840
   0.62384948  0.48430277  0.88998840
   0.62384948  0.98430277  0.88998840
   0.37384948  0.48430277  0.61001160
   0.37384948  0.98430277  0.61001160
   0.87384948  0.48430277  0.61001160
   0.87384948  0.98430277  0.61001160
   0.37384948  0.26569723  0.38998837
   0.37384948  0.76569723  0.38998837
   0.87384948  0.26569723  0.38998837
   0.87384948  0.76569723  0.38998837
   0.37615052  0.23430279  0.88998840
   0.37615052  0.73430277  0.88998840
   0.87615052  0.23430279  0.88998840
   0.87615052  0.73430277  0.88998840
   0.37615052  0.01569722  0.11001161
   0.37615052  0.51569723  0.11001161
   0.87615052  0.01569722  0.11001161
   0.87615052  0.51569723  0.11001161
   0.05353627  0.05119550  0.65414856
   0.05353627  0.55119553  0.65414856
   0.55353624  0.05119550  0.65414856
   0.55353624  0.55119553  0.65414856
   0.05353627  0.19880450  0.34585147
   0.05353627  0.69880447  0.34585147
   0.55353624  0.19880450  0.34585147
   0.55353624  0.69880447  0.34585147
   0.19646373  0.30119550  0.84585144
   0.19646373  0.80119553  0.84585144
   0.69646370  0.30119550  0.84585144
   0.69646370  0.80119553  0.84585144
   0.19646373  0.44880450  0.15414852
   0.19646373  0.94880447  0.15414852
   0.69646370  0.44880450  0.15414852
   0.69646370  0.94880447  0.15414852
   0.44646376  0.44880450  0.34585147
   0.44646376  0.94880447  0.34585147
   0.94646376  0.44880450  0.34585147
   0.94646376  0.94880447  0.34585147
   0.44646376  0.30119550  0.65414856
   0.44646376  0.80119553  0.65414856
   0.94646376  0.30119550  0.65414856
   0.94646376  0.80119553  0.65414856
   0.30353624  0.19880450  0.15414852
   0.30353624  0.69880447  0.15414852
   0.80353624  0.19880450  0.15414852
   0.80353624  0.69880447  0.15414852
   0.30353624  0.05119550  0.84585144
   0.30353624  0.55119553  0.84585144
   0.80353624  0.05119550  0.84585144
   0.80353624  0.55119553  0.84585144
   0.02509402  0.12500000  0.00000000
   0.02509402  0.62500000  0.00000000
   0.52509405  0.12500000  0.00000000
   0.52509405  0.62500000  0.00000000
   0.22490598  0.37500000  0.50000000
   0.22490598  0.87500000  0.50000000
   0.72490601  0.37500000  0.50000000
   0.72490601  0.87500000  0.50000000
   0.47490595  0.37500000  0.00000000
   0.47490595  0.87500000  0.00000000
   0.97490595  0.37500000  0.00000000
   0.97490595  0.87500000  0.00000000
   0.27509405  0.12500000  0.50000000
   0.27509405  0.62500000  0.50000000
   0.77509405  0.12500000  0.50000000
   0.77509405  0.62500000  0.50000000

 position of ions in cartesian coordinates  (Angst):
   1.10302204  0.14115225  2.49238104
   1.10302204  4.63724420  2.49238104
   5.47487166  0.14115225  2.49238104
   5.47487166  4.63724420  2.49238104
   1.10302204  2.10689370  3.89853000
   1.10302204  6.60298541  3.89853000
   5.47487166  2.10689370  3.89853000
   5.47487166  6.60298541  3.89853000
   1.08290271  2.38919828  0.70307443
   1.08290271  6.88529012  0.70307443
   5.45475207  2.38919828  0.70307443
   5.45475207  6.88529012  0.70307443
   1.08290271  4.35493949  5.68783684
   1.08290271  8.85103133  5.68783684
   5.45475207  4.35493949  5.68783684
   5.45475207  8.85103133  5.68783684
   3.26882732  4.35493949  3.89853000
   3.26882732  8.85103133  3.89853000
   7.64067681  4.35493949  3.89853000
   7.64067681  8.85103133  3.89853000
   3.26882732  2.38919828  2.49238104
   3.26882732  6.88529012  2.49238104
   7.64067681  2.38919828  2.49238104
   7.64067681  6.88529012  2.49238104
   3.28894692  2.10689370  5.68783684
   3.28894692  6.60298541  5.68783684
   7.66079641  2.10689370  5.68783684
   7.66079641  6.60298541  5.68783684
   3.28894692  0.14115225  0.70307443
   3.28894692  4.63724420  0.70307443
   7.66079641  0.14115225  0.70307443
   7.66079641  4.63724420  0.70307443
   0.46810499  0.46035934  4.18060539
   0.46810499  4.95645145  4.18060539
   4.83995429  0.46035934  4.18060539
   4.83995429  4.95645145  4.18060539
   0.46810499  1.78768659  2.21030603
   0.46810499  6.28377816  2.21030603
   4.83995429  1.78768659  2.21030603
   4.83995429  6.28377816  2.21030603
   1.71781969  2.70840526  5.40576146
   1.71781969  7.20449737  5.40576146
   6.08966892  2.70840526  5.40576146
   6.08966892  7.20449737  5.40576146
   1.71781969  4.03573251  0.98514948
   1.71781969  8.53182408  0.98514948
   6.08966892  4.03573251  0.98514948
   6.08966892  8.53182408  0.98514948
   3.90374470  4.03573251  2.21030603
   3.90374470  8.53182408  2.21030603
   8.27559419  4.03573251  2.21030603
   8.27559419  8.53182408  2.21030603
   3.90374470  2.70840526  4.18060539
   3.90374470  7.20449737  4.18060539
   8.27559419  2.70840526  4.18060539
   8.27559419  7.20449737  4.18060539
   2.65402954  1.78768659  0.98514948
   2.65402954  6.28377816  0.98514948
   7.02587903  1.78768659  0.98514948
   7.02587903  6.28377816  0.98514948
   2.65402954  0.46035934  5.40576146
   2.65402954  4.95645145  5.40576146
   7.02587903  0.46035934  5.40576146
   7.02587903  4.95645145  5.40576146
   0.21941459  1.12402296  0.00000000
   0.21941459  5.62011480  0.00000000
   4.59126431  1.12402296  0.00000000
   4.59126431  5.62011480  0.00000000
   1.96651019  3.37206888  3.19545561
   1.96651019  7.86816072  3.19545561
   6.33835994  3.37206888  3.19545561
   6.33835994  7.86816072  3.19545561
   4.15243468  3.37206888  0.00000000
   4.15243468  7.86816072  0.00000000
   8.52428417  3.37206888  0.00000000
   8.52428417  7.86816072  0.00000000
   2.40533956  1.12402296  3.19545561
   2.40533956  5.62011480  3.19545561
   6.77718906  1.12402296  3.19545561
   6.77718906  5.62011480  3.19545561



--------------------------------------------------------------------------------------------------------


 k-point   1 :   0.1250 0.1250 0.1250  plane waves:    9131
 k-point   2 :   0.3750 0.1250 0.1250  plane waves:    9134
 k-point   3 :   0.1250 0.3750 0.1250  plane waves:    9143
 k-point   4 :   0.3750 0.3750 0.1250  plane waves:    9126
 k-point   5 :   0.1250 0.1250 0.3750  plane waves:    9139
 k-point   6 :   0.3750 0.1250 0.3750  plane waves:    9116
 k-point   7 :   0.1250 0.3750 0.3750  plane waves:    9103
 k-point   8 :   0.3750 0.3750 0.3750  plane waves:    9119

 maximum and minimum number of plane-waves per node :      9143     9103

 maximum number of plane-waves:      9143
 maximum index in each direction: 
   IXMAX=   14   IYMAX=   14   IZMAX=   10
   IXMIN=  -14   IYMIN=  -15   IZMIN=  -10


 serial   3D FFT for wavefunctions
 parallel 3D FFT for charge:
    minimum data exchange during FFTs selected (reduces bandwidth)


 total amount of memory used by VASP MPI-rank0   389470. kBytes
=======================================================================

   base      :      30000. kBytes
   nonlr-proj:       9988. kBytes
   fftplans  :      20716. kBytes
   grid      :      36753. kBytes
   one-center:        245. kBytes
   wavefun   :     291768. kBytes

     INWAV:  cpu time      0.0001: real time      0.0003
 Broyden mixing: mesh for mixing (old mesh)
   NGX = 29   NGY = 29   NGZ = 21
  (NGX  = 96   NGY  = 96   NGZ  = 64)
  gives a total of  17661 points

 initial charge density was supplied:
 charge density of overlapping atoms calculated
 number of electron     384.0000000 magnetization 
 keeping initial charge density in first step


--------------------------------------------------------------------------------------------------------


 Maximum index for non-local projection operator         1568
 Maximum index for augmentation-charges         5577 (set IRDMAX)


--------------------------------------------------------------------------------------------------------


 First call to EWALD:  gamma=   0.223
 Maximum number of real-space cells 3x 2x 3
 Maximum number of reciprocal cells 3x 3x 2

    FEWALD:  cpu time      0.0730: real time      0.0732


--------------------------------------- Iteration      1(   1)  ---------------------------------------


    POTLOK:  cpu time      0.2612: real time      0.2623
    SETDIJ:  cpu time      0.0802: real time      0.0805
     EDDAV:  cpu time     33.1540: real time     33.4673
       DOS:  cpu time      0.0022: real time      0.0022
    --------------------------------------------
      LOOP:  cpu time     33.4977: real time     33.8125

 eigenvalue-minimisations  :  3728
 total energy-change (2. order) : 0.1965947E+04  (-0.1858170E+05)
 number of electron     384.0000000 magnetization 
 augmentation part      384.0000000 magnetization 

 Free energy of the ion-electron system (eV)
  ---------------------------------------------------
  alpha Z        PSCENC =       822.13470068
  Ewald energy   TEWEN  =    -21412.79383236
  -Hartree energ DENC   =     -4177.51500560
  -exchange      EXHF   =         0.00000000
  -V(xc)+E(xc)   XCENC  =       591.41943733
  PAW double counting   =     18752.77991877   -17816.57094691
  entropy T*S    EENTRO =         0.00114458
  eigenvalues    EBANDS =      2744.63720668
  atomic energy  EATOM  =     22461.85434800
  Solvation  Ediel_sol  =         0.00000000
  ---------------------------------------------------
  free energy    TOTEN  =      1965.94697116 eV

  energy without entropy =     1965.94582658  energy(sigma->0) =     1965.94658963


--------------------------------------------------------------------------------------------------------




--------------------------------------- Iteration      1(   2)  ---------------------------------------


     EDDAV:  cpu time     36.8429: real time     37.0572
       DOS:  cpu time      0.0022: real time      0.0022
    --------------------------------------------
      LOOP:  cpu time     36.8451: real time     37.0593

 eigenvalue-minimisations  :  4320
 total energy-change (2. order) :-0.2475987E+04  (-0.2428011E+04)
 number of electron     384.0000000 magnetization 
 augmentation part      384.0000000 magnetization 

 Free energy of the ion-electron system (eV)
  ---------------------------------------------------
  alpha Z        PSCENC =       822.13470068
  Ewald energy   TEWEN  =    -21412.79383236
  -Hartree energ DENC   =     -4177.51500560
  -exchange      EXHF   =         0.00000000
  -V(xc)+E(xc)   XCENC  =       591.41943733
  PAW double counting   =     18752.77991877   -17816.57094691
  entropy T*S    EENTRO =         0.00018843
  eigenvalues    EBANDS =       268.65159413
  atomic energy  EATOM  =     22461.85434800
  Solvation  Ediel_sol  =         0.00000000
  ---------------------------------------------------
  free energy    TOTEN  =      -510.03959753 eV

  energy without entropy =     -510.03978597  energy(sigma->0) =     -510.03966035


--------------------------------------------------------------------------------------------------------




--------------------------------------- Iteration      1(   3)  ---------------------------------------


     EDDAV:  cpu time     37.8346: real time     38.0583
       DOS:  cpu time      0.0021: real time      0.0021
    --------------------------------------------
      LOOP:  cpu time     37.8367: real time     38.0604

 eigenvalue-minimisations  :  4368
 total energy-change (2. order) :-0.9940154E+02  (-0.9911101E+02)
 number of electron     384.0000000 magnetization 
 augmentation part      384.0000000 magnetization 

 Free energy of the ion-electron system (eV)
  ---------------------------------------------------
  alpha Z        PSCENC =       822.13470068
  Ewald energy   TEWEN  =    -21412.79383236
  -Hartree energ DENC   =     -4177.51500560
  -exchange      EXHF   =         0.00000000
  -V(xc)+E(xc)   XCENC  =       591.41943733
  PAW double counting   =     18752.77991877   -17816.57094691
  entropy T*S    EENTRO =         0.00065585
  eigenvalues    EBANDS =       169.24958881
  atomic energy  EATOM  =     22461.85434800
  Solvation  Ediel_sol  =         0.00000000
  ---------------------------------------------------
  free energy    TOTEN  =      -609.44113544 eV

  energy without entropy =     -609.44179129  energy(sigma->0) =     -609.44135406


--------------------------------------------------------------------------------------------------------




--------------------------------------- Iteration      1(   4)  ---------------------------------------


     EDDAV:  cpu time     37.5697: real time     37.7957
       DOS:  cpu time      0.0022: real time      0.0022
    --------------------------------------------
      LOOP:  cpu time     37.5719: real time     37.7979

 eigenvalue-minimisations  :  4328
 total energy-change (2. order) :-0.8532037E+00  (-0.8516896E+00)
 number of electron     384.0000000 magnetization 
 augmentation part      384.0000000 magnetization 

 Free energy of the ion-electron system (eV)
  ---------------------------------------------------
  alpha Z        PSCENC =       822.13470068
  Ewald energy   TEWEN  =    -21412.79383236
  -Hartree energ DENC   =     -4177.51500560
  -exchange      EXHF   =         0.00000000
  -V(xc)+E(xc)   XCENC  =       591.41943733
  PAW double counting   =     18752.77991877   -17816.57094691
  entropy T*S    EENTRO =         0.00065291
  eigenvalues    EBANDS =       168.39638808
  atomic energy  EATOM  =     22461.85434800
  Solvation  Ediel_sol  =         0.00000000
  ---------------------------------------------------
  free energy    TOTEN  =      -610.29433911 eV

  energy without entropy =     -610.29499202  energy(sigma->0) =     -610.29455674


--------------------------------------------------------------------------------------------------------




--------------------------------------- Iteration      1(   5)  ---------------------------------------


     EDDAV:  cpu time     37.6362: real time     37.8532
       DOS:  cpu time      0.0022: real time      0.0022
    CHARGE:  cpu time      1.2624: real time      1.2691
    MIXING:  cpu time      0.0103: real time      0.0104
    --------------------------------------------
      LOOP:  cpu time     38.9111: real time     39.1346

 eigenvalue-minimisations  :  4328
 total energy-change (2. order) :-0.1154612E-01  (-0.1153852E-01)
 number of electron     384.0000066 magnetization 
 augmentation part       39.6238312 magnetization 

 Broyden mixing:
  rms(total) = 0.58242E+01    rms(broyden)= 0.58224E+01
  rms(prec ) = 0.75394E+01
  weight for this iteration     100.00

 Free energy of the ion-electron system (eV)
  ---------------------------------------------------
  alpha Z        PSCENC =       822.13470068
  Ewald energy   TEWEN  =    -21412.79383236
  -Hartree energ DENC   =     -4177.51500560
  -exchange      EXHF   =         0.00000000
  -V(xc)+E(xc)   XCENC  =       591.41943733
  PAW double counting   =     18752.77991877   -17816.57094691
  entropy T*S    EENTRO =         0.00065277
  eigenvalues    EBANDS =       168.38484210
  atomic energy  EATOM  =     22461.85434800
  Solvation  Ediel_sol  =         0.00000000
  ---------------------------------------------------
  free energy    TOTEN  =      -610.30588523 eV

  energy without entropy =     -610.30653800  energy(sigma->0) =     -610.30610282


--------------------------------------------------------------------------------------------------------




--------------------------------------- Iteration      1(   6)  ---------------------------------------


    POTLOK:  cpu time      0.2685: real time      0.2699
    SETDIJ:  cpu time      0.0795: real time      0.0798
     EDDAV:  cpu time     36.2216: real time     36.4265
       DOS:  cpu time      0.0022: real time      0.0022
    CHARGE:  cpu time      1.1661: real time      1.1724
    MIXING:  cpu time      0.0094: real time      0.0095
    --------------------------------------------
      LOOP:  cpu time     37.7473: real time     37.9603

 eigenvalue-minimisations  :  4176
 total energy-change (2. order) : 0.7669235E+02  (-0.2597879E+02)
 number of electron     384.0000055 magnetization 
 augmentation part       34.5998006 magnetization 

 Broyden mixing:
  rms(total) = 0.21786E+01    rms(broyden)= 0.21771E+01
  rms(prec ) = 0.24520E+01
  weight for this iteration     100.00

 eigenvalues of (default mixing * dielectric matrix)
  average eigenvalue GAMMA=   1.1477
  1.1477

 Free energy of the ion-electron system (eV)
  ---------------------------------------------------
  alpha Z        PSCENC =       822.13470068
  Ewald energy   TEWEN  =    -21412.79383236
  -Hartree energ DENC   =     -4908.26991870
  -exchange      EXHF   =         0.00000000
  -V(xc)+E(xc)   XCENC  =       645.59471440
  PAW double counting   =     27785.65202788   -26868.28926271
  entropy T*S    EENTRO =         0.00044792
  eigenvalues    EBANDS =       940.50324404
  atomic energy  EATOM  =     22461.85434800
  Solvation  Ediel_sol  =         0.00000000
  ---------------------------------------------------
  free energy    TOTEN  =      -533.61353086 eV

  energy without entropy =     -533.61397878  energy(sigma->0) =     -533.61368016


--------------------------------------------------------------------------------------------------------




--------------------------------------- Iteration      1(   7)  ---------------------------------------


    POTLOK:  cpu time      0.2679: real time      0.2693
    SETDIJ:  cpu time      0.0794: real time      0.0797
     EDDAV:  cpu time     37.0735: real time     37.2886
       DOS:  cpu time      0.0021: real time      0.0021
    CHARGE:  cpu time      1.1691: real time      1.1756
    MIXING:  cpu time      0.0099: real time      0.0100
    --------------------------------------------
      LOOP:  cpu time     38.6020: real time     38.8254

 eigenvalue-minimisations  :  4320
 total energy-change (2. order) : 0.1706367E+01  (-0.1438622E+01)
 number of electron     384.0000050 magnetization 
 augmentation part       33.6242150 magnetization 

 Broyden mixing:
  rms(total) = 0.10382E+01    rms(broyden)= 0.10377E+01
  rms(prec ) = 0.11447E+01
  weight for this iteration     100.00

 eigenvalues of (default mixing * dielectric matrix)
  average eigenvalue GAMMA=   1.4225
  1.4225  1.4225

 Free energy of the ion-electron system (eV)
  ---------------------------------------------------
  alpha Z        PSCENC =       822.13470068
  Ewald energy   TEWEN  =    -21412.79383236
  -Hartree energ DENC   =     -5071.24691747
  -exchange      EXHF   =         0.00000000
  -V(xc)+E(xc)   XCENC  =       659.03497074
  PAW double counting   =     37806.88560810   -36893.00159621
  entropy T*S    EENTRO =         0.00035220
  eigenvalues    EBANDS =      1095.22520224
  atomic energy  EATOM  =     22461.85434800
  Solvation  Ediel_sol  =         0.00000000
  ---------------------------------------------------
  free energy    TOTEN  =      -531.90716408 eV

  energy without entropy =     -531.90751628  energy(sigma->0) =     -531.90728148


--------------------------------------------------------------------------------------------------------




--------------------------------------- Iteration      1(   8)  ---------------------------------------


    POTLOK:  cpu time      0.2667: real time      0.2681
    SETDIJ:  cpu time      0.0796: real time      0.0799
     EDDAV:  cpu time     36.8009: real time     37.0130
       DOS:  cpu time      0.0021: real time      0.0021
    CHARGE:  cpu time      1.1658: real time      1.1721
    MIXING:  cpu time      0.0103: real time      0.0103
    --------------------------------------------
      LOOP:  cpu time     38.3255: real time     38.5455

 eigenvalue-minimisations  :  4264
 total energy-change (2. order) : 0.2838425E-01  (-0.6665207E-01)
 number of electron     384.0000051 magnetization 
 augmentation part       33.7773009 magnetization 

 Broyden mixing:
  rms(total) = 0.28476E+00    rms(broyden)= 0.28475E+00
  rms(prec ) = 0.33897E+00
  weight for this iteration     100.00

 eigenvalues of (default mixing * dielectric matrix)
  average eigenvalue GAMMA=   1.6180
  2.4981  1.1779  1.1779

 Free energy of the ion-electron system (eV)
  ---------------------------------------------------
  alpha Z        PSCENC =       822.13470068
  Ewald energy   TEWEN  =    -21412.79383236
  -Hartree energ DENC   =     -5085.06298142
  -exchange      EXHF   =         0.00000000
  -V(xc)+E(xc)   XCENC  =       661.76566039
  PAW double counting   =     45084.76377859   -44171.39956177
  entropy T*S    EENTRO =         0.00035430
  eigenvalues    EBANDS =      1106.85875377
  atomic energy  EATOM  =     22461.85434800
  Solvation  Ediel_sol  =         0.00000000
  ---------------------------------------------------
  free energy    TOTEN  =      -531.87877983 eV

  energy without entropy =     -531.87913413  energy(sigma->0) =     -531.87889793


--------------------------------------------------------------------------------------------------------




--------------------------------------- Iteration      1(   9)  ---------------------------------------


    POTLOK:  cpu time      0.2739: real time      0.2762
    SETDIJ:  cpu time      0.0796: real time      0.0799
     EDDAV:  cpu time     37.5308: real time     37.7517
       DOS:  cpu time      0.0022: real time      0.0022
    CHARGE:  cpu time      1.1697: real time      1.1763
    MIXING:  cpu time      0.0113: real time      0.0113
    --------------------------------------------
      LOOP:  cpu time     39.0674: real time     39.2976

 eigenvalue-minimisations  :  4360
 total energy-change (2. order) :-0.1599799E-01  (-0.2344877E-01)
 number of electron     384.0000052 magnetization 
 augmentation part       33.6474422 magnetization 

 Broyden mixing:
  rms(total) = 0.10782E+00    rms(broyden)= 0.10777E+00
  rms(prec ) = 0.11144E+00
  weight for this iteration     100.00

 eigenvalues of (default mixing * dielectric matrix)
  average eigenvalue GAMMA=   1.7959
  1.0860  1.0860  2.5057  2.5057

 Free energy of the ion-electron system (eV)
  ---------------------------------------------------
  alpha Z        PSCENC =       822.13470068
  Ewald energy   TEWEN  =    -21412.79383236
  -Hartree energ DENC   =     -5120.25246848
  -exchange      EXHF   =         0.00000000
  -V(xc)+E(xc)   XCENC  =       665.22406489
  PAW double counting   =     47978.12579806   -47065.70274783
  entropy T*S    EENTRO =         0.00034428
  eigenvalues    EBANDS =      1139.51501493
  atomic energy  EATOM  =     22461.85434800
  Solvation  Ediel_sol  =         0.00000000
  ---------------------------------------------------
  free energy    TOTEN  =      -531.89477782 eV

  energy without entropy =     -531.89512211  energy(sigma->0) =     -531.89489258


--------------------------------------------------------------------------------------------------------




--------------------------------------- Iteration      1(  10)  ---------------------------------------


    POTLOK:  cpu time      0.2730: real time      0.2745
    SETDIJ:  cpu time      0.0797: real time      0.0800
     EDDAV:  cpu time     36.6562: real time     36.8677
       DOS:  cpu time      0.0022: real time      0.0022
    CHARGE:  cpu time      1.1694: real time      1.1764
    MIXING:  cpu time      0.0116: real time      0.0117
    --------------------------------------------
      LOOP:  cpu time     38.1922: real time     38.4125

 eigenvalue-minimisations  :  4248
 total energy-change (2. order) :-0.2273841E-02  (-0.2852447E-02)
 number of electron     384.0000051 magnetization 
 augmentation part       33.6833069 magnetization 

 Broyden mixing:
  rms(total) = 0.19314E-01    rms(broyden)= 0.19297E-01
  rms(prec ) = 0.25510E-01
  weight for this iteration     100.00

 eigenvalues of (default mixing * dielectric matrix)
  average eigenvalue GAMMA=   1.5980
  2.6175  2.2625  0.9900  0.9900  1.1302

 Free energy of the ion-electron system (eV)
  ---------------------------------------------------
  alpha Z        PSCENC =       822.13470068
  Ewald energy   TEWEN  =    -21412.79383236
  -Hartree energ DENC   =     -5116.24247499
  -exchange      EXHF   =         0.00000000
  -V(xc)+E(xc)   XCENC  =       665.00706442
  PAW double counting   =     46778.46210683   -45865.78846112
  entropy T*S    EENTRO =         0.00033810
  eigenvalues    EBANDS =      1135.46915879
  atomic energy  EATOM  =     22461.85434800
  Solvation  Ediel_sol  =         0.00000000
  ---------------------------------------------------
  free energy    TOTEN  =      -531.89705167 eV

  energy without entropy =     -531.89738976  energy(sigma->0) =     -531.89716436


--------------------------------------------------------------------------------------------------------




--------------------------------------- Iteration      1(  11)  ---------------------------------------


    POTLOK:  cpu time      0.2705: real time      0.2720
    SETDIJ:  cpu time      0.0797: real time      0.0800
     EDDAV:  cpu time     36.6492: real time     36.8696
       DOS:  cpu time      0.0022: real time      0.0022
    CHARGE:  cpu time      1.2682: real time      1.2756
    MIXING:  cpu time      0.0114: real time      0.0115
    --------------------------------------------
      LOOP:  cpu time     38.2811: real time     38.5108

 eigenvalue-minimisations  :  4296
 total energy-change (2. order) : 0.6828934E-03  (-0.5296039E-03)
 number of electron     384.0000051 magnetization 
 augmentation part       33.6686888 magnetization 

 Broyden mixing:
  rms(total) = 0.18768E-01    rms(broyden)= 0.18765E-01
  rms(prec ) = 0.20059E-01
  weight for this iteration     100.00

 eigenvalues of (default mixing * dielectric matrix)
  average eigenvalue GAMMA=   1.6064
  2.8064  2.4982  1.0777  1.0777  1.0894  1.0894

 Free energy of the ion-electron system (eV)
  ---------------------------------------------------
  alpha Z        PSCENC =       822.13470068
  Ewald energy   TEWEN  =    -21412.79383236
  -Hartree energ DENC   =     -5118.45401442
  -exchange      EXHF   =         0.00000000
  -V(xc)+E(xc)   XCENC  =       665.18716906
  PAW double counting   =     46965.08343639   -46052.48851544
  entropy T*S    EENTRO =         0.00034121
  eigenvalues    EBANDS =      1137.57999811
  atomic energy  EATOM  =     22461.85434800
  Solvation  Ediel_sol  =         0.00000000
  ---------------------------------------------------
  free energy    TOTEN  =      -531.89636877 eV

  energy without entropy =     -531.89670998  energy(sigma->0) =     -531.89648251


--------------------------------------------------------------------------------------------------------




--------------------------------------- Iteration      1(  12)  ---------------------------------------


    POTLOK:  cpu time      0.2723: real time      0.2738
    SETDIJ:  cpu time      0.0797: real time      0.0800
     EDDAV:  cpu time     36.0800: real time     36.2904
       DOS:  cpu time      0.0021: real time      0.0021
    CHARGE:  cpu time      1.2701: real time      1.2771
    MIXING:  cpu time      0.0133: real time      0.0134
    --------------------------------------------
      LOOP:  cpu time     37.7175: real time     37.9368

 eigenvalue-minimisations  :  4208
 total energy-change (2. order) : 0.1235368E-04  (-0.1917152E-03)
 number of electron     384.0000052 magnetization 
 augmentation part       33.6738030 magnetization 

 Broyden mixing:
  rms(total) = 0.32480E-02    rms(broyden)= 0.32318E-02
  rms(prec ) = 0.40265E-02
  weight for this iteration     100.00

 eigenvalues of (default mixing * dielectric matrix)
  average eigenvalue GAMMA=   1.5303
  2.7932  2.4559  1.2374  1.0672  1.0672  1.0456  1.0456

 Free energy of the ion-electron system (eV)
  ---------------------------------------------------
  alpha Z        PSCENC =       822.13470068
  Ewald energy   TEWEN  =    -21412.79383236
  -Hartree energ DENC   =     -5117.83062884
  -exchange      EXHF   =         0.00000000
  -V(xc)+E(xc)   XCENC  =       665.14625168
  PAW double counting   =     46790.02289677   -45877.39468332
  entropy T*S    EENTRO =         0.00034314
  eigenvalues    EBANDS =      1136.96424783
  atomic energy  EATOM  =     22461.85434800
  Solvation  Ediel_sol  =         0.00000000
  ---------------------------------------------------
  free energy    TOTEN  =      -531.89635642 eV

  energy without entropy =     -531.89669956  energy(sigma->0) =     -531.89647080


--------------------------------------------------------------------------------------------------------




--------------------------------------- Iteration      1(  13)  ---------------------------------------


    POTLOK:  cpu time      0.2740: real time      0.2755
    SETDIJ:  cpu time      0.0796: real time      0.0798
     EDDAV:  cpu time     37.5072: real time     37.7575
       DOS:  cpu time      0.0021: real time      0.0021
    CHARGE:  cpu time      1.2705: real time      1.2775
    MIXING:  cpu time      0.0140: real time      0.0141
    --------------------------------------------
      LOOP:  cpu time     39.1475: real time     39.4065

 eigenvalue-minimisations  :  4400
 total energy-change (2. order) : 0.1211582E-04  (-0.1680339E-04)
 number of electron     384.0000051 magnetization 
 augmentation part       33.6727560 magnetization 

 Broyden mixing:
  rms(total) = 0.16608E-02    rms(broyden)= 0.16604E-02
  rms(prec ) = 0.18470E-02
  weight for this iteration     100.00

 eigenvalues of (default mixing * dielectric matrix)
  average eigenvalue GAMMA=   1.5204
  2.7961  2.4477  1.8224  1.0408  1.0408  1.0957  1.0957  0.8242

 Free energy of the ion-electron system (eV)
  ---------------------------------------------------
  alpha Z        PSCENC =       822.13470068
  Ewald energy   TEWEN  =    -21412.79383236
  -Hartree energ DENC   =     -5117.87905474
  -exchange      EXHF   =         0.00000000
  -V(xc)+E(xc)   XCENC  =       665.14884041
  PAW double counting   =     46789.93696071   -45877.31379776
  entropy T*S    EENTRO =         0.00034237
  eigenvalues    EBANDS =      1137.01514840
  atomic energy  EATOM  =     22461.85434800
  Solvation  Ediel_sol  =         0.00000000
  ---------------------------------------------------
  free energy    TOTEN  =      -531.89634430 eV

  energy without entropy =     -531.89668668  energy(sigma->0) =     -531.89645843


--------------------------------------------------------------------------------------------------------




--------------------------------------- Iteration      1(  14)  ---------------------------------------


    POTLOK:  cpu time      0.2685: real time      0.2699
    SETDIJ:  cpu time      0.0796: real time      0.0799
     EDDAV:  cpu time     36.6581: real time     36.8781
       DOS:  cpu time      0.0021: real time      0.0022
    CHARGE:  cpu time      1.2696: real time      1.2768
    MIXING:  cpu time      0.0132: real time      0.0133
    --------------------------------------------
      LOOP:  cpu time     38.2911: real time     38.5202

 eigenvalue-minimisations  :  4280
 total energy-change (2. order) :-0.6650844E-06  (-0.2664259E-05)
 number of electron     384.0000051 magnetization 
 augmentation part       33.6733539 magnetization 

 Broyden mixing:
  rms(total) = 0.80856E-03    rms(broyden)= 0.80806E-03
  rms(prec ) = 0.84012E-03
  weight for this iteration     100.00

 eigenvalues of (default mixing * dielectric matrix)
  average eigenvalue GAMMA=   1.5173
  2.8351  2.4778  2.1793  0.9970  0.9970  1.1106  1.1106  0.9744  0.9744

 Free energy of the ion-electron system (eV)
  ---------------------------------------------------
  alpha Z        PSCENC =       822.13470068
  Ewald energy   TEWEN  =    -21412.79383236
  -Hartree energ DENC   =     -5117.80463204
  -exchange      EXHF   =         0.00000000
  -V(xc)+E(xc)   XCENC  =       665.14168474
  PAW double counting   =     46783.83565043   -45871.21129830
  entropy T*S    EENTRO =         0.00034230
  eigenvalues    EBANDS =      1136.94669158
  atomic energy  EATOM  =     22461.85434800
  Solvation  Ediel_sol  =         0.00000000
  ---------------------------------------------------
  free energy    TOTEN  =      -531.89634497 eV

  energy without entropy =     -531.89668727  energy(sigma->0) =     -531.89645907


--------------------------------------------------------------------------------------------------------




--------------------------------------- Iteration      1(  15)  ---------------------------------------


    POTLOK:  cpu time      0.2746: real time      0.2761
    SETDIJ:  cpu time      0.0797: real time      0.0800
     EDDAV:  cpu time     24.3474: real time     24.4948
       DOS:  cpu time      0.0023: real time      0.0023
    --------------------------------------------
      LOOP:  cpu time     24.7039: real time     24.8533

 eigenvalue-minimisations  :  2464
 total energy-change (2. order) :-0.7679773E-08  (-0.5825269E-07)
 number of electron     384.0000051 magnetization 
 augmentation part       33.6733539 magnetization 

 Free energy of the ion-electron system (eV)
  ---------------------------------------------------
  alpha Z        PSCENC =       822.13470068
  Ewald energy   TEWEN  =    -21412.79383236
  -Hartree energ DENC   =     -5117.80642733
  -exchange      EXHF   =         0.00000000
  -V(xc)+E(xc)   XCENC  =       665.14112255
  PAW double counting   =     46779.39051995   -45866.76588524
  entropy T*S    EENTRO =         0.00034233
  eigenvalues    EBANDS =      1136.94876645
  atomic energy  EATOM  =     22461.85434800
  Solvation  Ediel_sol  =         0.00000000
  ---------------------------------------------------
  free energy    TOTEN  =      -531.89634497 eV

  energy without entropy =     -531.89668730  energy(sigma->0) =     -531.89645908


--------------------------------------------------------------------------------------------------------




 average (electrostatic) potential at core
  the test charge radii are     1.0406  0.7215
  (the norm of the test charge is              1.0000)
       1 -66.4679       2 -66.4680       3 -66.4679       4 -66.4680       5 -66.4680
       6 -66.4680       7 -66.4680       8 -66.4680       9 -66.4680      10 -66.4680
      11 -66.4680      12 -66.4680      13 -66.4680      14 -66.4680      15 -66.4680
      16 -66.4680      17 -66.4680      18 -66.4680      19 -66.4680      20 -66.4680
      21 -66.4680      22 -66.4680      23 -66.4679      24 -66.4680      25 -66.4680
      26 -66.4680      27 -66.4680      28 -66.4680      29 -66.4680      30 -66.4680
      31 -66.4679      32 -66.4680      33 -63.2615      34 -63.2615      35 -63.2615
      36 -63.2615      37 -63.2615      38 -63.2615      39 -63.2615      40 -63.2615
      41 -63.2615      42 -63.2615      43 -63.2615      44 -63.2615      45 -63.2615
      46 -63.2615      47 -63.2615      48 -63.2615      49 -63.2615      50 -63.2615
      51 -63.2615      52 -63.2615      53 -63.2615      54 -63.2615      55 -63.2615
      56 -63.2615      57 -63.2615      58 -63.2615      59 -63.2615      60 -63.2615
      61 -63.2615      62 -63.2615      63 -63.2615      64 -63.2615      65 -63.0199
      66 -63.0199      67 -63.0199      68 -63.0200      69 -63.0199      70 -63.0199
      71 -63.0199      72 -63.0199      73 -63.0199      74 -63.0200      75 -63.0199
      76 -63.0199      77 -63.0199      78 -63.0199      79 -63.0199      80 -63.0199



 E-fermi :  10.4074     XC(G=0): -13.3394     alpha+bet :-22.7851

 Fermi energy:        10.4074427171

 k-point     1 :       0.1250    0.1250    0.1250
  band No.  band energies     occupation 
      1     -11.5184      2.00000
      2     -10.6437      2.00000
      3     -10.5983      2.00000
      4     -10.1081      2.00000
      5     -10.0415      2.00000
      6      -9.9925      2.00000
      7      -9.8164      2.00000
      8      -9.3612      2.00000
      9      -9.3366      2.00000
     10      -9.2374      2.00000
     11      -9.2278      2.00000
     12      -8.9923      2.00000
     13      -8.8387      2.00000
     14      -8.7813      2.00000
     15      -8.6606      2.00000
     16      -8.4224      2.00000
     17      -8.3737      2.00000
     18      -8.2204      2.00000
     19      -8.1954      2.00000
     20      -8.1653      2.00000
     21      -8.1466      2.00000
     22      -8.1383      2.00000
     23      -8.0073      2.00000
     24      -7.9130      2.00000
     25      -7.8892      2.00000
     26      -7.8704      2.00000
     27      -7.7889      2.00000
     28      -7.6818      2.00000
     29      -7.5965      2.00000
     30      -7.4331      2.00000
     31      -7.4244      2.00000
     32      -7.4168      2.00000
     33      -7.2764      2.00000
     34      -7.2322      2.00000
     35      -7.1710      2.00000
     36      -7.1663      2.00000
     37      -7.1555      2.00000
     38      -7.1419      2.00000
     39      -7.1182      2.00000
     40      -7.0638      2.00000
     41      -6.9772      2.00000
     42      -6.9758      2.00000
     43      -6.9498      2.00000
     44      -6.8925      2.00000
     45      -6.7641      2.00000
     46      -6.6862      2.00000
     47      -6.5652      2.00000
     48      -6.5549      2.00000
     49       2.1372      2.00000
     50       2.1635      2.00000
     51       2.2146      2.00000
     52       2.3369      2.00000
     53       2.3414      2.00000
     54       2.3635      2.00000
     55       2.4918      2.00000
     56       2.7937      2.00000
     57       2.8134      2.00000
     58       2.8200      2.00000
     59       2.8477      2.00000
     60       2.8882      2.00000
     61       2.9010      2.00000
     62       2.9902      2.00000
     63       3.0584      2.00000
     64       3.1061      2.00000
     65       3.1079      2.00000
     66       3.1104      2.00000
     67       3.1885      2.00000
     68       3.4394      2.00000
     69       3.4779      2.00000
     70       3.5307      2.00000
     71       3.6578      2.00000
     72       3.7309      2.00000
     73       3.8716      2.00000
     74       3.9226      2.00000
     75       3.9235      2.00000
     76       4.0532      2.00000
     77       4.0767      2.00000
     78       4.1094      2.00000
     79       4.2028      2.00000
     80       4.2469      2.00000
     81       4.3322      2.00000
     82       4.3341      2.00000
     83       4.3575      2.00000
     84       4.4452      2.00000
     85       4.4875      2.00000
     86       4.5209      2.00000
     87       4.5904      2.00000
     88       4.6499      2.00000
     89       4.6631      2.00000
     90       4.7093      2.00000
     91       4.7910      2.00000
     92       4.9130      2.00000
     93       5.0300      2.00000
     94       5.0582      2.00000
     95       5.1738      2.00000
     96       5.3589      2.00000
     97       5.5247      2.00000
     98       5.7052      2.00000
     99       5.7935      2.00000
    100       5.8079      2.00000
    101       5.8134      2.00000
    102       5.8312      2.00000
    103       5.8795      2.00000
    104       6.0664      2.00000
    105       6.0743      2.00000
    106       6.1147      2.00000
    107       6.3330      2.00000
    108       6.3821      2.00000
    109       6.4590      2.00000
    110       6.5452      2.00000
    111       6.5969      2.00000
    112       6.6222      2.00000
    113       6.6841      2.00000
    114       6.7471      2.00000
    115       6.7849      2.00000
    116       6.7864      2.00000
    117       6.8257      2.00000
    118       6.8956      2.00000
    119       6.9026      2.00000
    120       7.0597      2.00000
    121       7.0764      2.00000
    122       7.1356      2.00000
    123       7.1721      2.00000
    124       7.2013      2.00000
    125       7.2201      2.00000
    126       7.2456      2.00000
    127       7.3587      2.00000
    128       7.3646      2.00000
    129       7.4998      2.00000
    130       7.6084      2.00000
    131       7.6428      2.00000
    132       7.6915      2.00000
    133       7.8192      2.00000
    134       7.8207      2.00000
    135       7.9824      2.00000
    136       7.9939      2.00000
    137       8.0025      2.00000
    138       8.0402      2.00000
    139       8.0794      2.00000
    140       8.1870      2.00000
    141       8.1936      2.00000
    142       8.1980      2.00000
    143       8.2410      2.00000
    144       8.2489      2.00000
    145       8.2656      2.00000
    146       8.2913      2.00000
    147       8.3512      2.00000
    148       8.3583      2.00000
    149       8.4115      2.00000
    150       8.4627      2.00000
    151       8.5827      2.00000
    152       8.5910      2.00000
    153       8.5950      2.00000
    154       8.6627      2.00000
    155       8.6686      2.00000
    156       8.6778      2.00000
    157       8.7899      2.00000
    158       8.8029      2.00000
    159       8.9066      2.00000
[...]
     0.000000000  8.992183684  0.000000000     0.000000000  0.111207693  0.000000000
     0.000000000  0.000000000  6.390911228     0.000000000  0.000000000  0.156472209

  length of vectors
     8.743698985  8.992183684  6.390911228     0.114368073  0.111207693  0.156472209


 FORCES acting on ions
    electron-ion (+dipol)            ewald-force                    non-local-force                 convergence-correction
 -----------------------------------------------------------------------------------------------
   0.419E+01 -.366E+01 0.198E+02   -.397E+01 0.851E+00 -.190E+02   -.260E+00 0.365E+01 -.142E+01   0.133E-03 -.234E-04 0.139E-03
   0.419E+01 -.366E+01 0.198E+02   -.397E+01 0.851E+00 -.190E+02   -.260E+00 0.365E+01 -.142E+01   0.133E-03 -.204E-04 0.138E-03
   0.419E+01 -.366E+01 0.198E+02   -.397E+01 0.851E+00 -.190E+02   -.260E+00 0.365E+01 -.142E+01   0.132E-03 -.234E-04 0.138E-03
   0.419E+01 -.366E+01 0.198E+02   -.397E+01 0.851E+00 -.190E+02   -.260E+00 0.365E+01 -.142E+01   0.132E-03 -.204E-04 0.138E-03
   0.419E+01 0.366E+01 -.198E+02   -.397E+01 -.851E+00 0.190E+02   -.260E+00 -.365E+01 0.142E+01   0.133E-03 0.219E-04 -.138E-03
   0.419E+01 0.366E+01 -.198E+02   -.397E+01 -.851E+00 0.190E+02   -.260E+00 -.365E+01 0.142E+01   0.133E-03 0.219E-04 -.138E-03
   0.419E+01 0.366E+01 -.198E+02   -.397E+01 -.851E+00 0.190E+02   -.260E+00 -.365E+01 0.142E+01   0.132E-03 0.219E-04 -.138E-03
   0.419E+01 0.366E+01 -.198E+02   -.397E+01 -.851E+00 0.190E+02   -.260E+00 -.365E+01 0.142E+01   0.132E-03 0.219E-04 -.138E-03
   -.419E+01 -.366E+01 -.198E+02   0.397E+01 0.851E+00 0.190E+02   0.260E+00 0.365E+01 0.142E+01   -.132E-03 -.215E-04 -.139E-03
   -.419E+01 -.366E+01 -.198E+02   0.397E+01 0.851E+00 0.190E+02   0.260E+00 0.365E+01 0.142E+01   -.132E-03 -.223E-04 -.139E-03
   -.419E+01 -.366E+01 -.198E+02   0.397E+01 0.851E+00 0.190E+02   0.260E+00 0.365E+01 0.142E+01   -.133E-03 -.215E-04 -.139E-03
   -.419E+01 -.366E+01 -.198E+02   0.397E+01 0.851E+00 0.190E+02   0.260E+00 0.365E+01 0.142E+01   -.133E-03 -.223E-04 -.139E-03
   -.419E+01 0.366E+01 0.198E+02   0.397E+01 -.851E+00 -.190E+02   0.260E+00 -.365E+01 -.142E+01   -.132E-03 0.234E-04 0.138E-03
   -.419E+01 0.366E+01 0.198E+02   0.397E+01 -.851E+00 -.190E+02   0.260E+00 -.365E+01 -.142E+01   -.132E-03 0.204E-04 0.138E-03
   -.419E+01 0.366E+01 0.198E+02   0.397E+01 -.851E+00 -.190E+02   0.260E+00 -.365E+01 -.142E+01   -.133E-03 0.234E-04 0.138E-03
   -.419E+01 0.366E+01 0.198E+02   0.397E+01 -.851E+00 -.190E+02   0.260E+00 -.365E+01 -.142E+01   -.133E-03 0.204E-04 0.138E-03
   -.419E+01 0.366E+01 -.198E+02   0.397E+01 -.851E+00 0.190E+02   0.260E+00 -.365E+01 0.142E+01   -.132E-03 0.234E-04 -.138E-03
   -.419E+01 0.366E+01 -.198E+02   0.397E+01 -.851E+00 0.190E+02   0.260E+00 -.365E+01 0.142E+01   -.132E-03 0.204E-04 -.138E-03
   -.419E+01 0.366E+01 -.198E+02   0.397E+01 -.851E+00 0.190E+02   0.260E+00 -.365E+01 0.142E+01   -.133E-03 0.234E-04 -.138E-03
   -.419E+01 0.366E+01 -.198E+02   0.397E+01 -.851E+00 0.190E+02   0.260E+00 -.365E+01 0.142E+01   -.133E-03 0.204E-04 -.138E-03
   -.419E+01 -.366E+01 0.198E+02   0.397E+01 0.851E+00 -.190E+02   0.260E+00 0.365E+01 -.142E+01   -.132E-03 -.215E-04 0.138E-03
   -.419E+01 -.366E+01 0.198E+02   0.397E+01 0.851E+00 -.190E+02   0.260E+00 0.365E+01 -.142E+01   -.132E-03 -.223E-04 0.138E-03
   -.419E+01 -.366E+01 0.198E+02   0.397E+01 0.851E+00 -.190E+02   0.260E+00 0.365E+01 -.142E+01   -.133E-03 -.215E-04 0.138E-03
   -.419E+01 -.366E+01 0.198E+02   0.397E+01 0.851E+00 -.190E+02   0.260E+00 0.365E+01 -.142E+01   -.133E-03 -.223E-04 0.138E-03
   0.419E+01 0.366E+01 0.198E+02   -.397E+01 -.851E+00 -.190E+02   -.260E+00 -.365E+01 -.142E+01   0.133E-03 0.219E-04 0.138E-03
   0.419E+01 0.366E+01 0.198E+02   -.397E+01 -.851E+00 -.190E+02   -.260E+00 -.365E+01 -.142E+01   0.133E-03 0.219E-04 0.138E-03
   0.419E+01 0.366E+01 0.198E+02   -.397E+01 -.851E+00 -.190E+02   -.260E+00 -.365E+01 -.142E+01   0.132E-03 0.219E-04 0.138E-03
   0.419E+01 0.366E+01 0.198E+02   -.397E+01 -.851E+00 -.190E+02   -.260E+00 -.365E+01 -.142E+01   0.132E-03 0.219E-04 0.138E-03
   0.419E+01 -.366E+01 -.198E+02   -.397E+01 0.851E+00 0.190E+02   -.260E+00 0.365E+01 0.142E+01   0.133E-03 -.234E-04 -.139E-03
   0.419E+01 -.366E+01 -.198E+02   -.397E+01 0.851E+00 0.190E+02   -.260E+00 0.365E+01 0.142E+01   0.133E-03 -.204E-04 -.139E-03
   0.419E+01 -.366E+01 -.198E+02   -.397E+01 0.851E+00 0.190E+02   -.260E+00 0.365E+01 0.142E+01   0.132E-03 -.234E-04 -.139E-03
   0.419E+01 -.366E+01 -.198E+02   -.397E+01 0.851E+00 0.190E+02   -.260E+00 0.365E+01 0.142E+01   0.132E-03 -.204E-04 -.139E-03
   0.808E+01 0.397E+01 -.218E+02   -.659E+01 -.313E+01 0.235E+02   -.122E+01 -.606E+00 -.132E+01   -.385E-04 0.522E-04 -.677E-03
   0.808E+01 0.397E+01 -.218E+02   -.659E+01 -.313E+01 0.235E+02   -.122E+01 -.606E+00 -.132E+01   -.385E-04 0.588E-04 -.677E-03
   0.808E+01 0.397E+01 -.218E+02   -.659E+01 -.313E+01 0.235E+02   -.122E+01 -.606E+00 -.132E+01   -.416E-04 0.522E-04 -.676E-03
   0.808E+01 0.397E+01 -.218E+02   -.659E+01 -.313E+01 0.235E+02   -.122E+01 -.606E+00 -.132E+01   -.416E-04 0.588E-04 -.677E-03
   0.808E+01 -.397E+01 0.218E+02   -.659E+01 0.313E+01 -.235E+02   -.122E+01 0.606E+00 0.132E+01   -.385E-04 -.559E-04 0.678E-03
   0.808E+01 -.397E+01 0.218E+02   -.659E+01 0.313E+01 -.235E+02   -.122E+01 0.606E+00 0.132E+01   -.385E-04 -.551E-04 0.678E-03
   0.808E+01 -.397E+01 0.218E+02   -.659E+01 0.313E+01 -.235E+02   -.122E+01 0.606E+00 0.132E+01   -.416E-04 -.559E-04 0.678E-03
   0.808E+01 -.397E+01 0.218E+02   -.659E+01 0.313E+01 -.235E+02   -.122E+01 0.606E+00 0.132E+01   -.416E-04 -.551E-04 0.677E-03
   -.808E+01 0.397E+01 0.218E+02   0.659E+01 -.313E+01 -.235E+02   0.122E+01 -.606E+00 0.132E+01   0.417E-04 0.570E-04 0.677E-03
   -.808E+01 0.397E+01 0.218E+02   0.659E+01 -.313E+01 -.235E+02   0.122E+01 -.606E+00 0.132E+01   0.417E-04 0.541E-04 0.677E-03
   -.808E+01 0.397E+01 0.218E+02   0.659E+01 -.313E+01 -.235E+02   0.122E+01 -.606E+00 0.132E+01   0.382E-04 0.570E-04 0.678E-03
   -.808E+01 0.397E+01 0.218E+02   0.659E+01 -.313E+01 -.235E+02   0.122E+01 -.606E+00 0.132E+01   0.382E-04 0.541E-04 0.678E-03
   -.808E+01 -.397E+01 -.218E+02   0.659E+01 0.313E+01 0.235E+02   0.122E+01 0.606E+00 -.132E+01   0.417E-04 -.519E-04 -.678E-03
   -.808E+01 -.397E+01 -.218E+02   0.659E+01 0.313E+01 0.235E+02   0.122E+01 0.606E+00 -.132E+01   0.417E-04 -.592E-04 -.679E-03
   -.808E+01 -.397E+01 -.218E+02   0.659E+01 0.313E+01 0.235E+02   0.122E+01 0.606E+00 -.132E+01   0.382E-04 -.519E-04 -.678E-03
   -.808E+01 -.397E+01 -.218E+02   0.659E+01 0.313E+01 0.235E+02   0.122E+01 0.606E+00 -.132E+01   0.382E-04 -.592E-04 -.679E-03
   -.808E+01 -.397E+01 0.218E+02   0.659E+01 0.313E+01 -.235E+02   0.122E+01 0.606E+00 0.132E+01   0.395E-04 -.519E-04 0.677E-03
   -.808E+01 -.397E+01 0.218E+02   0.659E+01 0.313E+01 -.235E+02   0.122E+01 0.606E+00 0.132E+01   0.395E-04 -.592E-04 0.678E-03
   -.808E+01 -.397E+01 0.218E+02   0.659E+01 0.313E+01 -.235E+02   0.122E+01 0.606E+00 0.132E+01   0.408E-04 -.519E-04 0.678E-03
   -.808E+01 -.397E+01 0.218E+02   0.659E+01 0.313E+01 -.235E+02   0.122E+01 0.606E+00 0.132E+01   0.408E-04 -.592E-04 0.678E-03
   -.808E+01 0.397E+01 -.218E+02   0.659E+01 -.313E+01 0.235E+02   0.122E+01 -.606E+00 -.132E+01   0.395E-04 0.570E-04 -.677E-03
   -.808E+01 0.397E+01 -.218E+02   0.659E+01 -.313E+01 0.235E+02   0.122E+01 -.606E+00 -.132E+01   0.395E-04 0.541E-04 -.677E-03
   -.808E+01 0.397E+01 -.218E+02   0.659E+01 -.313E+01 0.235E+02   0.122E+01 -.606E+00 -.132E+01   0.408E-04 0.570E-04 -.677E-03
   -.808E+01 0.397E+01 -.218E+02   0.659E+01 -.313E+01 0.235E+02   0.122E+01 -.606E+00 -.132E+01   0.408E-04 0.541E-04 -.677E-03
   0.808E+01 -.397E+01 -.218E+02   -.659E+01 0.313E+01 0.235E+02   -.122E+01 0.606E+00 -.132E+01   -.391E-04 -.559E-04 -.679E-03
   0.808E+01 -.397E+01 -.218E+02   -.659E+01 0.313E+01 0.235E+02   -.122E+01 0.606E+00 -.132E+01   -.391E-04 -.551E-04 -.678E-03
   0.808E+01 -.397E+01 -.218E+02   -.659E+01 0.313E+01 0.235E+02   -.122E+01 0.606E+00 -.132E+01   -.411E-04 -.559E-04 -.679E-03
   0.808E+01 -.397E+01 -.218E+02   -.659E+01 0.313E+01 0.235E+02   -.122E+01 0.606E+00 -.132E+01   -.411E-04 -.551E-04 -.678E-03
   0.808E+01 0.397E+01 0.218E+02   -.659E+01 -.313E+01 -.235E+02   -.122E+01 -.606E+00 0.132E+01   -.391E-04 0.522E-04 0.677E-03
   0.808E+01 0.397E+01 0.218E+02   -.659E+01 -.313E+01 -.235E+02   -.122E+01 -.606E+00 0.132E+01   -.391E-04 0.588E-04 0.678E-03
   0.808E+01 0.397E+01 0.218E+02   -.659E+01 -.313E+01 -.235E+02   -.122E+01 -.606E+00 0.132E+01   -.411E-04 0.522E-04 0.677E-03
   0.808E+01 0.397E+01 0.218E+02   -.659E+01 -.313E+01 -.235E+02   -.122E+01 -.606E+00 0.132E+01   -.411E-04 0.588E-04 0.678E-03
   -.238E+02 -.366E-04 -.336E-04   0.253E+02 0.140E-04 0.478E-04   -.107E+01 -.932E-19 -.202E-18   -.246E-03 -.214E-05 -.108E-05
   -.238E+02 -.339E-04 -.284E-04   0.253E+02 -.501E-05 0.569E-05   -.107E+01 -.224E-18 -.220E-18   -.246E-03 0.214E-05 -.578E-06
   -.238E+02 -.366E-04 -.336E-04   0.253E+02 0.140E-04 0.478E-04   -.107E+01 -.100E-18 -.990E-19   -.248E-03 -.214E-05 -.108E-05
   -.238E+02 -.339E-04 -.284E-04   0.253E+02 -.501E-05 0.569E-05   -.107E+01 -.225E-18 -.206E-18   -.248E-03 0.214E-05 -.578E-06
   0.238E+02 -.350E-04 -.365E-04   -.253E+02 -.169E-05 -.222E-04   0.107E+01 0.165E-18 -.204E-18   0.248E-03 0.292E-05 0.609E-06
   0.238E+02 -.371E-04 -.313E-04   -.253E+02 0.184E-04 -.507E-04   0.107E+01 0.501E-19 -.310E-18   0.248E-03 -.293E-05 0.107E-05
   0.238E+02 -.350E-04 -.365E-04   -.253E+02 -.169E-05 -.222E-04   0.107E+01 0.221E-18 -.175E-18   0.246E-03 0.292E-05 0.609E-06
   0.238E+02 -.371E-04 -.313E-04   -.253E+02 0.184E-04 -.507E-04   0.107E+01 0.477E-19 -.150E-18   0.246E-03 -.293E-05 0.107E-05
   0.238E+02 -.386E-04 -.483E-04   -.253E+02 -.466E-05 0.140E-04   0.107E+01 0.542E-19 0.147E-18   0.246E-03 0.292E-05 -.601E-06
   0.238E+02 -.408E-04 -.536E-04   -.253E+02 0.155E-04 0.425E-04   0.107E+01 0.154E-18 0.145E-18   0.246E-03 -.293E-05 -.106E-05
   0.238E+02 -.386E-04 -.483E-04   -.253E+02 -.466E-05 0.140E-04   0.107E+01 0.172E-18 0.254E-18   0.248E-03 0.292E-05 -.601E-06
   0.238E+02 -.408E-04 -.536E-04   -.253E+02 0.155E-04 0.425E-04   0.107E+01 0.187E-18 0.256E-18   0.248E-03 -.293E-05 -.106E-05
   -.238E+02 -.420E-04 -.114E-04   0.253E+02 0.170E-04 -.560E-04   -.107E+01 -.207E-18 0.118E-18   -.246E-03 -.214E-05 0.109E-05
   -.238E+02 -.394E-04 -.165E-04   0.253E+02 -.205E-05 -.139E-04   -.107E+01 -.165E-18 0.117E-18   -.246E-03 0.214E-05 0.586E-06
   -.238E+02 -.420E-04 -.114E-04   0.253E+02 0.170E-04 -.560E-04   -.107E+01 -.199E-18 0.198E-18   -.248E-03 -.214E-05 0.109E-05
   -.238E+02 -.394E-04 -.165E-04   0.253E+02 -.205E-05 -.139E-04   -.107E+01 -.158E-18 0.144E-18   -.248E-03 0.214E-05 0.586E-06
 -----------------------------------------------------------------------------------------------
   0.435E-02 -.201E-02 -.705E-03   -.416E-12 -.584E-13 -.633E-14   0.178E-14 -.266E-14 -.178E-14   0.939E-07 -.268E-07 0.152E-08


 POSITION                                       TOTAL-FORCE (eV/Angst)
 -----------------------------------------------------------------------------------
      1.10302      0.14115      2.49238        -0.034368      0.845321     -0.592085
      1.10302      4.63724      2.49238        -0.034368      0.845321     -0.592085
      5.47487      0.14115      2.49238        -0.034368      0.845321     -0.592085
      5.47487      4.63724      2.49238        -0.034368      0.845321     -0.592085
      1.10302      2.10689      3.89853        -0.034368     -0.845321      0.592085
      1.10302      6.60299      3.89853        -0.034368     -0.845321      0.592085
      5.47487      2.10689      3.89853        -0.034368     -0.845321      0.592085
      5.47487      6.60299      3.89853        -0.034368     -0.845321      0.592085
      1.08290      2.38920      0.70307         0.034368      0.845321      0.592085
      1.08290      6.88529      0.70307         0.034368      0.845321      0.592085
      5.45475      2.38920      0.70307         0.034368      0.845321      0.592085
      5.45475      6.88529      0.70307         0.034368      0.845321      0.592085
      1.08290      4.35494      5.68784         0.034368     -0.845321     -0.592085
      1.08290      8.85103      5.68784         0.034368     -0.845321     -0.592085
      5.45475      4.35494      5.68784         0.034368     -0.845321     -0.592085
      5.45475      8.85103      5.68784         0.034368     -0.845321     -0.592085
      3.26883      4.35494      3.89853         0.034368     -0.845321      0.592085
      3.26883      8.85103      3.89853         0.034368     -0.845321      0.592085
      7.64068      4.35494      3.89853         0.034368     -0.845321      0.592085
      7.64068      8.85103      3.89853         0.034368     -0.845321      0.592085
      3.26883      2.38920      2.49238         0.034368      0.845321     -0.592085
      3.26883      6.88529      2.49238         0.034368      0.845321     -0.592085
      7.64068      2.38920      2.49238         0.034368      0.845321     -0.592085
      7.64068      6.88529      2.49238         0.034368      0.845321     -0.592085
      3.28895      2.10689      5.68784        -0.034368     -0.845321     -0.592085
      3.28895      6.60299      5.68784        -0.034368     -0.845321     -0.592085
      7.66080      2.10689      5.68784        -0.034368     -0.845321     -0.592085
      7.66080      6.60299      5.68784        -0.034368     -0.845321     -0.592085
      3.28895      0.14115      0.70307        -0.034368      0.845321      0.592085
      3.28895      4.63724      0.70307        -0.034368      0.845321      0.592085
      7.66080      0.14115      0.70307        -0.034368      0.845321      0.592085
      7.66080      4.63724      0.70307        -0.034368      0.845321      0.592085
      0.46810      0.46036      4.18061         0.268620      0.232153      0.360992
      0.46810      4.95645      4.18061         0.268620      0.232153      0.360992
      4.83995      0.46036      4.18061         0.268620      0.232153      0.360992
      4.83995      4.95645      4.18061         0.268620      0.232153      0.360992
      0.46810      1.78769      2.21031         0.268620     -0.232153     -0.360992
      0.46810      6.28378      2.21031         0.268620     -0.232153     -0.360992
      4.83995      1.78769      2.21031         0.268620     -0.232153     -0.360992
      4.83995      6.28378      2.21031         0.268620     -0.232153     -0.360992
      1.71782      2.70841      5.40576        -0.268620      0.232153     -0.360992
      1.71782      7.20450      5.40576        -0.268620      0.232153     -0.360992
      6.08967      2.70841      5.40576        -0.268620      0.232153     -0.360992
      6.08967      7.20450      5.40576        -0.268620      0.232153     -0.360992
      1.71782      4.03573      0.98515        -0.268620     -0.232153      0.360992
      1.71782      8.53182      0.98515        -0.268620     -0.232153      0.360992
      6.08967      4.03573      0.98515        -0.268620     -0.232153      0.360992
      6.08967      8.53182      0.98515        -0.268620     -0.232153      0.360992
      3.90374      4.03573      2.21031        -0.268620     -0.232153     -0.360992
      3.90374      8.53182      2.21031        -0.268620     -0.232153     -0.360992
      8.27559      4.03573      2.21031        -0.268620     -0.232153     -0.360992
      8.27559      8.53182      2.21031        -0.268620     -0.232153     -0.360992
      3.90374      2.70841      4.18061        -0.268620      0.232153      0.360992
      3.90374      7.20450      4.18061        -0.268620      0.232153      0.360992
      8.27559      2.70841      4.18061        -0.268620      0.232153      0.360992
      8.27559      7.20450      4.18061        -0.268620      0.232153      0.360992
      2.65403      1.78769      0.98515         0.268620     -0.232153      0.360992
      2.65403      6.28378      0.98515         0.268620     -0.232153      0.360992
      7.02588      1.78769      0.98515         0.268620     -0.232153      0.360992
      7.02588      6.28378      0.98515         0.268620     -0.232153      0.360992
      2.65403      0.46036      5.40576         0.268620      0.232153     -0.360992
      2.65403      4.95645      5.40576         0.268620      0.232153     -0.360992
      7.02588      0.46036      5.40576         0.268620      0.232153     -0.360992
      7.02588      4.95645      5.40576         0.268620      0.232153     -0.360992
      0.21941      1.12402      0.00000         0.404296     -0.000000     -0.000000
      0.21941      5.62011      0.00000         0.404296     -0.000000     -0.000000
      4.59126      1.12402      0.00000         0.404296     -0.000000     -0.000000
      4.59126      5.62011      0.00000         0.404296     -0.000000     -0.000000
      1.96651      3.37207      3.19546        -0.404296     -0.000000     -0.000000
      1.96651      7.86816      3.19546        -0.404296     -0.000000     -0.000000
      6.33836      3.37207      3.19546        -0.404296     -0.000000     -0.000000
      6.33836      7.86816      3.19546        -0.404296     -0.000000     -0.000000
      4.15243      3.37207      0.00000        -0.404296     -0.000000     -0.000000
      4.15243      7.86816      0.00000        -0.404296     -0.000000     -0.000000
      8.52428      3.37207      0.00000        -0.404296     -0.000000     -0.000000
      8.52428      7.86816      0.00000        -0.404296     -0.000000     -0.000000
      2.40534      1.12402      3.19546         0.404296     -0.000000     -0.000000
      2.40534      5.62011      3.19546         0.404296     -0.000000     -0.000000
      6.77719      1.12402      3.19546         0.404296     -0.000000     -0.000000
      6.77719      5.62011      3.19546         0.404296     -0.000000     -0.000000
 -----------------------------------------------------------------------------------
    total drift:                                0.004346     -0.002012     -0.000705


--------------------------------------------------------------------------------------------------------



  FREE ENERGIE OF THE ION-ELECTRON SYSTEM (eV)
  ---------------------------------------------------
  free  energy   TOTEN  =      -531.89634497 eV

  energy  without entropy=     -531.89668730  energy(sigma->0) =     -531.89645908



--------------------------------------------------------------------------------------------------------


    POTLOK:  cpu time      0.3480: real time      0.3502


--------------------------------------------------------------------------------------------------------


 writing wavefunctions
     LOOP+:  cpu time    601.3661: real time    605.2390
    4ORBIT:  cpu time      0.0000: real time      0.0000

 total amount of memory used by VASP MPI-rank0   389470. kBytes
=======================================================================

   base      :      30000. kBytes
   nonlr-proj:       9988. kBytes
   fftplans  :      20716. kBytes
   grid      :      36753. kBytes
   one-center:        245. kBytes
   wavefun   :     291768. kBytes

  
  
 General timing and accounting informations for this job:
 ========================================================
  
                  Total CPU time used (sec):      608.890
                            User time (sec):      606.689
                          System time (sec):        2.200
                         Elapsed time (sec):      612.836
  
                   Maximum memory used (kb):      567376.
                   Average memory used (kb):          N/A
  
                          Minor page faults:       268697
                          Major page faults:            2
                 Voluntary context switches:          724
