 vasp.6.3.0 20Jan22 (build Jul  1 2024 12:21:46) complex                         
 executed on             LinuxGNU date 2024.10.21  13:13:05
 running    1 mpi-ranks, with    1 threads/rank
 distrk:  each k-point on    1 cores,    1 groups
 distr:  one band on NCORE=   1 cores,    1 groups


--------------------------------------------------------------------------------------------------------


 INCAR:
   SYSTEM = Alumina_orthorombic_cell_under_strain
   ISTART = 0
   ICHARG = 2
   ENCUT = 400
   ALGO = Normal
   PREC = Normal
   ISPIN = 1
   LWAVE = T             (Write WAVECAR)
   LCHARG = T             (Write CHGCAR)
   NPAR = 1
   EDIFF = 1E-6
   NSW = 0
   NELM = 100
   POTIM = 0.5
   IBRION = -1
   ISMEAR = 1
   SIGMA = 0.026
   EDIFFG = -0.001
   ISIF = 2
   LREAL = Auto

 POTCAR:    PAW_PBE Al 04Jan2001                  
 POTCAR:    PAW_PBE O 08Apr2002                   
 POTCAR:    PAW_PBE Al 04Jan2001                  
   SHA256 =  17880443556af62b473fe41b62a467bd001ad55d2cabe504a3f22e34d4e9db96 Al/POTCAR             
   COPYR  = (c) Copyright 04Jan2001 Georg Kresse                                                    
   COPYR  = This file is part of the software VASP. Any use, copying, and all other rights are regul
   COPYR  = If you do not have a valid VASP license, you may not use, copy or distribute this file. 
   VRHFIN =Al: s2p1                                                                                 
   LEXCH  = PE                                                                                      
   EATOM  =    53.5387 eV,    3.9350 Ry                                                             
                                                                                                    
   TITEL  = PAW_PBE Al 04Jan2001                                                                    
   LULTRA =        F    use ultrasoft PP ?                                                          
   IUNSCR =        1    unscreen: 0-lin 1-nonlin 2-no                                               
   RPACOR =    1.500    partial core radius                                                         
   POMASS =   26.981; ZVAL   =    3.000    mass and valenz                                          
   RCORE  =    1.900    outmost cutoff radius                                                       
   RWIGS  =    2.650; RWIGS  =    1.402    wigner-seitz radius (au A)                               
   ENMAX  =  240.300; ENMIN  =  180.225 eV                                                          
   ICORE  =        2    local potential                                                             
   LCOR   =        T    correct aug charges                                                         
   LPAW   =        T    paw PP                                                                      
   EAUG   =  291.052                                                                                
   DEXC   =    0.000                                                                                
   RMAX   =    1.939    core radius for proj-oper                                                   
   RAUG   =    1.300    factor for augmentation sphere                                              
   RDEP   =    1.966    radius for radial grids                                                     
   RDEPT  =    1.856    core radius for aug-charge                                                  
                                                                                                    
   Atomic configuration                                                                             
    6 entries                                                                                       
     n  l   j            E        occ.                                                              
     1  0  0.50     -1511.1048   2.0000                                                             
     2  0  0.50      -108.1629   2.0000                                                             
     2  1  1.50       -69.6402   6.0000                                                             
     3  0  0.50        -7.7528   2.0000                                                             
     3  1  1.50        -2.7121   1.0000                                                             
     3  2  2.50        -2.7212   0.0000                                                             
   Description                                                                                      
     l       E           TYP  RCUT    TYP  RCUT                                                     
     0     -7.7528455     23  1.900                                                                 
     0     -3.3096929     23  1.900                                                                 
     1     -2.7120682     23  1.900                                                                 
     1     13.6058260     23  1.900                                                                 
     2     -2.7211652      7  1.900                                                                 
  local pseudopotential read in
  partial core-charges read in
  partial kinetic energy density read in
  atomic valenz-charges read in
  non local Contribution for L=           0  read in
    real space projection operators read in
  non local Contribution for L=           0  read in
    real space projection operators read in
  non local Contribution for L=           1  read in
    real space projection operators read in
  non local Contribution for L=           1  read in
    real space projection operators read in
    PAW grid and wavefunctions read in

   number of l-projection  operators is LMAX  =           4
   number of lm-projection operators is LMMAX =           8

 POTCAR:    PAW_PBE O 08Apr2002                   
   SHA256 =  818f92134a0a090dccd8ba1447fa70422a3b330e708bb4f08108d8ae51209ddf O/POTCAR              
   COPYR  = (c) Copyright 08Apr2002 Georg Kresse                                                    
   COPYR  = This file is part of the software VASP. Any use, copying, and all other rights are regul
   COPYR  = If you do not have a valid VASP license, you may not use, copy or distribute this file. 
   VRHFIN =O: s2p4                                                                                  
   LEXCH  = PE                                                                                      
   EATOM  =   432.3788 eV,   31.7789 Ry                                                             
                                                                                                    
   TITEL  = PAW_PBE O 08Apr2002                                                                     
   LULTRA =        F    use ultrasoft PP ?                                                          
   IUNSCR =        1    unscreen: 0-lin 1-nonlin 2-no                                               
   RPACOR =    1.200    partial core radius                                                         
   POMASS =   16.000; ZVAL   =    6.000    mass and valenz                                          
   RCORE  =    1.520    outmost cutoff radius                                                       
   RWIGS  =    1.550; RWIGS  =    0.820    wigner-seitz radius (au A)                               
   ENMAX  =  400.000; ENMIN  =  300.000 eV                                                          
   ICORE  =        2    local potential                                                             
   LCOR   =        T    correct aug charges                                                         
   LPAW   =        T    paw PP                                                                      
   EAUG   =  605.392                                                                                
   DEXC   =    0.000                                                                                
   RMAX   =    1.553    core radius for proj-oper                                                   
   RAUG   =    1.300    factor for augmentation sphere                                              
   RDEP   =    1.550    radius for radial grids                                                     
   RDEPT  =    1.329    core radius for aug-charge                                                  
                                                                                                    
   Atomic configuration                                                                             
    4 entries                                                                                       
     n  l   j            E        occ.                                                              
     1  0  0.50      -514.6923   2.0000                                                             
     2  0  0.50       -23.9615   2.0000                                                             
     2  1  0.50        -9.0305   4.0000                                                             
     3  2  1.50        -9.5241   0.0000                                                             
   Description                                                                                      
     l       E           TYP  RCUT    TYP  RCUT                                                     
     0    -23.9615318     23  1.200                                                                 
     0     -9.5240782     23  1.200                                                                 
     1     -9.0304911     23  1.520                                                                 
     1      8.1634956     23  1.520                                                                 
     2     -9.5240782      7  1.500                                                                 
  local pseudopotential read in
  partial core-charges read in
  partial kinetic energy density read in
  kinetic energy density of atom read in
  atomic valenz-charges read in
  non local Contribution for L=           0  read in
    real space projection operators read in
  non local Contribution for L=           0  read in
    real space projection operators read in
  non local Contribution for L=           1  read in
    real space projection operators read in
  non local Contribution for L=           1  read in
    real space projection operators read in
    PAW grid and wavefunctions read in

   number of l-projection  operators is LMAX  =           4
   number of lm-projection operators is LMMAX =           8

 Optimization of the real space projectors (new method)

 maximal supplied QI-value         = 19.84
 optimisation between [QCUT,QGAM] = [ 10.12, 20.44] = [ 28.68,116.96] Ry 
 Optimized for a Real-space Cutoff    1.23 Angstroem

   l    n(q)    QCUT    max X(q) W(low)/X(q) W(high)/X(q)  e(spline) 
   0      7    10.119   176.870    0.49E-04    0.18E-03    0.39E-07
   0      7    10.119   105.762    0.46E-04    0.18E-03    0.38E-07
   1      7    10.119    55.370    0.30E-03    0.37E-03    0.12E-06
   1      7    10.119    20.208    0.27E-03    0.35E-03    0.11E-06
 Optimization of the real space projectors (new method)

 maximal supplied QI-value         = 24.76
 optimisation between [QCUT,QGAM] = [ 10.15, 20.30] = [ 28.85,115.39] Ry 
 Optimized for a Real-space Cutoff    1.38 Angstroem

   l    n(q)    QCUT    max X(q) W(low)/X(q) W(high)/X(q)  e(spline) 
   0      8    10.150    20.381    0.22E-03    0.32E-03    0.29E-06
   0      8    10.150    15.268    0.23E-03    0.35E-03    0.30E-06
   1      8    10.150     5.964    0.46E-03    0.53E-03    0.21E-06
   1      8    10.150     5.382    0.38E-03    0.45E-03    0.19E-06
  PAW_PBE Al 04Jan2001                  :
 energy of atom  1       EATOM=  -53.5387
 kinetic energy error for atom=    0.0005 (will be added to EATOM!!)
  PAW_PBE O 08Apr2002                   :
 energy of atom  2       EATOM= -432.3788
 kinetic energy error for atom=    0.1156 (will be added to EATOM!!)


 POSCAR:    Al  O
  positions in direct lattice
  No initial velocities read in
 exchange correlation table for  LEXCH =        8
   RHO(1)=    0.500       N(1)  =     2000
   RHO(2)=  100.500       N(2)  =     4000



--------------------------------------------------------------------------------------------------------


 ion  position               nearest neighbor table
   1  0.126  0.016  0.390-  70 1.91  52 1.93  46 1.96  77 2.01  37 2.02  33 2.07   5 2.74  18 2.94
                            20 2.98  31 3.20  29 3.20  10 3.25   9 3.25   6 3.28
   2  0.126  0.516  0.390-  69 1.91  51 1.93  45 1.96  78 2.01  38 2.02  34 2.07   6 2.74  17 2.94
                            19 2.98  32 3.20  30 3.20   9 3.25  10 3.25   5 3.28
   3  0.626  0.016  0.390-  72 1.91  50 1.93  48 1.96  79 2.01  39 2.02  35 2.07   7 2.74  20 2.94
                            18 2.98  29 3.20  31 3.20  12 3.25  11 3.25   8 3.28
   4  0.626  0.516  0.390-  71 1.91  49 1.93  47 1.96  80 2.01  40 2.02  36 2.07   8 2.74  19 2.94
                            17 2.98  30 3.20  32 3.20  11 3.25  12 3.25   7 3.28
   5  0.126  0.234  0.610-  69 1.91  55 1.93  41 1.96  77 2.01  33 2.02  37 2.07   1 2.74  21 2.94
                            23 2.98  27 3.20  25 3.20  13 3.25  14 3.25   2 3.28
   6  0.126  0.734  0.610-  70 1.91  56 1.93  42 1.96  78 2.01  34 2.02  38 2.07   2 2.74  22 2.94
                            24 2.98  28 3.20  26 3.20  14 3.25  13 3.25   1 3.28
   7  0.626  0.234  0.610-  71 1.91  53 1.93  43 1.96  79 2.01  35 2.02  39 2.07   3 2.74  23 2.94
                            21 2.98  25 3.20  27 3.20  15 3.25  16 3.25   4 3.28
   8  0.626  0.734  0.610-  72 1.91  54 1.93  44 1.96  80 2.01  36 2.02  40 2.07   4 2.74  24 2.94
                            22 2.98  26 3.20  28 3.20  16 3.25  15 3.25   3 3.28
   9  0.124  0.266  0.110-  65 1.91  57 1.93  37 1.96  75 2.01  45 2.02  41 2.07  13 2.74  27 2.94
                            25 2.98  21 3.20  23 3.20   2 3.25   1 3.25  14 3.28
  10  0.124  0.766  0.110-  66 1.91  58 1.93  38 1.96  76 2.01  46 2.02  42 2.07  14 2.74  28 2.94
                            26 2.98  22 3.20  24 3.20   1 3.25   2 3.25  13 3.28
  11  0.624  0.266  0.110-  67 1.91  59 1.93  39 1.96  73 2.01  47 2.02  43 2.07  15 2.74  25 2.94
                            27 2.98  23 3.20  21 3.20   4 3.25   3 3.25  16 3.28
  12  0.624  0.766  0.110-  68 1.91  60 1.93  40 1.96  74 2.01  48 2.02  44 2.07  16 2.74  26 2.94
                            28 2.98  24 3.20  22 3.20   3 3.25   4 3.25  15 3.28
  13  0.124  0.484  0.890-  66 1.91  62 1.93  34 1.96  75 2.01  41 2.02  45 2.07   9 2.74  32 2.94
                            30 2.98  17 3.20  19 3.20   5 3.25   6 3.25  10 3.28
  14  0.124  0.984  0.890-  65 1.91  61 1.93  33 1.96  76 2.01  42 2.02  46 2.07  10 2.74  31 2.94
                            29 2.98  18 3.20  20 3.20   6 3.25   5 3.25   9 3.28
  15  0.624  0.484  0.890-  68 1.91  64 1.93  36 1.96  73 2.01  43 2.02  47 2.07  11 2.74  30 2.94
                            32 2.98  19 3.20  17 3.20   7 3.25   8 3.25  12 3.28
  16  0.624  0.984  0.890-  67 1.91  63 1.93  35 1.96  74 2.01  44 2.02  48 2.07  12 2.74  29 2.94
                            31 2.98  20 3.20  18 3.20   8 3.25   7 3.25  11 3.28
  17  0.374  0.484  0.610-  78 1.91  36 1.93  62 1.96  69 2.01  53 2.02  49 2.07  21 2.74   2 2.94
                             4 2.98  13 3.20  15 3.20  25 3.25  26 3.25  22 3.28
  18  0.374  0.984  0.610-  77 1.91  35 1.93  61 1.96  70 2.01  54 2.02  50 2.07  22 2.74   1 2.94
                             3 2.98  14 3.20  16 3.20  26 3.25  25 3.25  21 3.28
  19  0.874  0.484  0.610-  80 1.91  34 1.93  64 1.96  71 2.01  55 2.02  51 2.07  23 2.74   4 2.94
                             2 2.98  15 3.20  13 3.20  27 3.25  28 3.25  24 3.28
  20  0.874  0.984  0.610-  79 1.91  33 1.93  63 1.96  72 2.01  56 2.02  52 2.07  24 2.74   3 2.94
                             1 2.98  16 3.20  14 3.20  28 3.25  27 3.25  23 3.28
  21  0.374  0.266  0.390-  77 1.91  39 1.93  57 1.96  69 2.01  49 2.02  53 2.07  17 2.74   5 2.94
                             7 2.98   9 3.20  11 3.20  30 3.25  29 3.25  18 3.28
  22  0.374  0.766  0.390-  78 1.91  40 1.93  58 1.96  70 2.01  50 2.02  54 2.07  18 2.74   6 2.94
                             8 2.98  10 3.20  12 3.20  29 3.25  30 3.25  17 3.28
  23  0.874  0.266  0.390-  79 1.91  37 1.93  59 1.96  71 2.01  51 2.02  55 2.07  19 2.74   7 2.94
                             5 2.98  11 3.20   9 3.20  32 3.25  31 3.25  20 3.28
  24  0.874  0.766  0.390-  80 1.91  38 1.93  60 1.96  72 2.01  52 2.02  56 2.07  20 2.74   8 2.94
                             6 2.98  12 3.20  10 3.20  31 3.25  32 3.25  19 3.28
  25  0.376  0.234  0.890-  73 1.91  41 1.93  53 1.96  67 2.01  61 2.02  57 2.07  29 2.74  11 2.94
                             9 2.98   7 3.20   5 3.20  17 3.25  18 3.25  30 3.28
  26  0.376  0.734  0.890-  74 1.91  42 1.93  54 1.96  68 2.01  62 2.02  58 2.07  30 2.74  12 2.94
                            10 2.98   8 3.20   6 3.20  18 3.25  17 3.25  29 3.28
  27  0.876  0.234  0.890-  75 1.91  43 1.93  55 1.96  65 2.01  63 2.02  59 2.07  31 2.74   9 2.94
                            11 2.98   5 3.20   7 3.20  19 3.25  20 3.25  32 3.28
  28  0.876  0.734  0.890-  76 1.91  44 1.93  56 1.96  66 2.01  64 2.02  60 2.07  32 2.74  10 2.94
                            12 2.98   6 3.20   8 3.20  20 3.25  19 3.25  31 3.28
  29  0.376  0.016  0.110-  74 1.91  46 1.93  50 1.96  67 2.01  57 2.02  61 2.07  25 2.74  16 2.94
                            14 2.98   3 3.20   1 3.20  22 3.25  21 3.25  26 3.28
  30  0.376  0.516  0.110-  73 1.91  45 1.93  49 1.96  68 2.01  58 2.02  62 2.07  26 2.74  15 2.94
                            13 2.98   4 3.20   2 3.20  22 3.25  21 3.25  25 3.28
  31  0.876  0.016  0.110-  76 1.91  48 1.93  52 1.96  65 2.01  59 2.02  63 2.07  27 2.74  14 2.94
                            16 2.98   1 3.20   3 3.20  24 3.25  23 3.25  28 3.28
  32  0.876  0.516  0.110-  75 1.91  47 1.93  51 1.96  66 2.01  60 2.02  64 2.07  28 2.74  13 2.94
                            15 2.98   2 3.20   4 3.20  24 3.25  23 3.25  27 3.28
  33  0.054  0.051  0.654-  20 1.93  14 1.96   5 2.02   1 2.07
  34  0.054  0.551  0.654-  19 1.93  13 1.96   6 2.02   2 2.07
  35  0.554  0.051  0.654-  18 1.93  16 1.96   7 2.02   3 2.07
  36  0.554  0.551  0.654-  17 1.93  15 1.96   8 2.02   4 2.07
  37  0.054  0.199  0.346-  23 1.93   9 1.96   1 2.02   5 2.07
  38  0.054  0.699  0.346-  24 1.93  10 1.96   2 2.02   6 2.07
  39  0.554  0.199  0.346-  21 1.93  11 1.96   3 2.02   7 2.07
  40  0.554  0.699  0.346-  22 1.93  12 1.96   4 2.02   8 2.07
  41  0.196  0.301  0.846-  25 1.93   5 1.96  13 2.02   9 2.07
  42  0.196  0.801  0.846-  26 1.93   6 1.96  14 2.02  10 2.07
  43  0.696  0.301  0.846-  27 1.93   7 1.96  15 2.02  11 2.07
  44  0.696  0.801  0.846-  28 1.93   8 1.96  16 2.02  12 2.07
  45  0.196  0.449  0.154-  30 1.93   2 1.96   9 2.02  13 2.07
  46  0.196  0.949  0.154-  29 1.93   1 1.96  10 2.02  14 2.07
  47  0.696  0.449  0.154-  32 1.93   4 1.96  11 2.02  15 2.07
  48  0.696  0.949  0.154-  31 1.93   3 1.96  12 2.02  16 2.07
  49  0.446  0.449  0.346-   4 1.93  30 1.96  21 2.02  17 2.07
  50  0.446  0.949  0.346-   3 1.93  29 1.96  22 2.02  18 2.07
  51  0.946  0.449  0.346-   2 1.93  32 1.96  23 2.02  19 2.07
  52  0.946  0.949  0.346-   1 1.93  31 1.96  24 2.02  20 2.07
  53  0.446  0.301  0.654-   7 1.93  25 1.96  17 2.02  21 2.07
  54  0.446  0.801  0.654-   8 1.93  26 1.96  18 2.02  22 2.07
  55  0.946  0.301  0.654-   5 1.93  27 1.96  19 2.02  23 2.07
  56  0.946  0.801  0.654-   6 1.93  28 1.96  20 2.02  24 2.07
  57  0.304  0.199  0.154-   9 1.93  21 1.96  29 2.02  25 2.07
  58  0.304  0.699  0.154-  10 1.93  22 1.96  30 2.02  26 2.07
  59  0.804  0.199  0.154-  11 1.93  23 1.96  31 2.02  27 2.07
  60  0.804  0.699  0.154-  12 1.93  24 1.96  32 2.02  28 2.07
  61  0.304  0.051  0.846-  14 1.93  18 1.96  25 2.02  29 2.07
  62  0.304  0.551  0.846-  13 1.93  17 1.96  26 2.02  30 2.07
  63  0.804  0.051  0.846-  16 1.93  20 1.96  27 2.02  31 2.07
  64  0.804  0.551  0.846-  15 1.93  19 1.96  28 2.02  32 2.07
  65  0.025  0.125  0.000-  14 1.91   9 1.91  27 2.01  31 2.01
  66  0.025  0.625  0.000-  13 1.91  10 1.91  28 2.01  32 2.01
  67  0.525  0.125  0.000-  16 1.91  11 1.91  25 2.01  29 2.01
  68  0.525  0.625  0.000-  15 1.91  12 1.91  26 2.01  30 2.01
  69  0.225  0.375  0.500-   5 1.91   2 1.91  17 2.01  21 2.01
  70  0.225  0.875  0.500-   6 1.91   1 1.91  18 2.01  22 2.01
  71  0.725  0.375  0.500-   7 1.91   4 1.91  19 2.01  23 2.01
  72  0.725  0.875  0.500-   8 1.91   3 1.91  20 2.01  24 2.01
  73  0.475  0.375  0.000-  25 1.91  30 1.91  15 2.01  11 2.01
  74  0.475  0.875  0.000-  29 1.91  26 1.91  16 2.01  12 2.01
  75  0.975  0.375  0.000-  27 1.91  32 1.91  13 2.01   9 2.01
  76  0.975  0.875  0.000-  31 1.91  28 1.91  14 2.01  10 2.01
  77  0.275  0.125  0.500-  18 1.91  21 1.91   5 2.01   1 2.01
  78  0.275  0.625  0.500-  17 1.91  22 1.91   6 2.01   2 2.01
  79  0.775  0.125  0.500-  20 1.91  23 1.91   7 2.01   3 2.01
  80  0.775  0.625  0.500-  19 1.91  24 1.91   8 2.01   4 2.01

  LATTYP: Found a simple orthorhombic cell.
 ALAT       =     7.2336687530
 B/A-ratio  =     1.3681458986
 C/A-ratio  =     1.4070268484
  
  Lattice vectors:
  
 A1 = (   0.0000000000,   0.0000000000,   7.2336687530)
 A2 = (   9.8967142361,   0.0000000000,   0.0000000000)
 A3 = (   0.0000000000,  10.1779661481,   0.0000000000)


Analysis of symmetry for initial positions (statically):
=====================================================================
 Subroutine PRICEL returns following result:
 
  LATTYP: Found a simple orthorhombic cell.
 ALAT       =     4.9483571183
 B/A-ratio  =     1.0284187391
 C/A-ratio  =     1.4618323981
  
  Lattice vectors:
  
 A1 = (   4.9483571183,   0.0000000000,   0.0000000000)
 A2 = (   0.0000000000,   5.0889831881,   0.0000000000)
 A3 = (   0.0000000000,   0.0000000000,   7.2336687530)
 
   4 primitive cells build up your supercell.
 

 Routine SETGRP: Setting up the symmetry group for a 
 simple orthorhombic supercell.


 Subroutine GETGRP returns: Found  8 space group operations
 (whereof  2 operations were pure point group operations)
 out of a pool of  8 trial point group operations.


The static configuration has the point symmetry S_2 .
 The point group associated with its full space group is D_2h.


Analysis of symmetry for dynamics (positions and initial velocities):
=====================================================================
 Subroutine PRICEL returns following result:
 
  LATTYP: Found a simple orthorhombic cell.
 ALAT       =     4.9483571183
 B/A-ratio  =     1.0284187391
 C/A-ratio  =     1.4618323981
  
  Lattice vectors:
  
 A1 = (   4.9483571183,   0.0000000000,   0.0000000000)
 A2 = (   0.0000000000,   5.0889831881,   0.0000000000)
 A3 = (   0.0000000000,   0.0000000000,   7.2336687530)
 
   4 primitive cells build up your supercell.
 

 Routine SETGRP: Setting up the symmetry group for a 
 simple orthorhombic supercell.


 Subroutine GETGRP returns: Found  8 space group operations
 (whereof  2 operations were pure point group operations)
 out of a pool of  8 trial point group operations.


The dynamic configuration has the point symmetry S_2 .
 The point group associated with its full space group is D_2h.


Analysis of constrained symmetry for selective dynamics:
=====================================================================
 Subroutine PRICEL returns following result:
 
  LATTYP: Found a simple orthorhombic cell.
 ALAT       =     4.9483571183
 B/A-ratio  =     1.0284187391
 C/A-ratio  =     1.4618323981
  
  Lattice vectors:
  
 A1 = (   4.9483571183,   0.0000000000,   0.0000000000)
 A2 = (   0.0000000000,   5.0889831881,   0.0000000000)
 A3 = (   0.0000000000,   0.0000000000,   7.2336687530)
 
   4 primitive cells build up your supercell.
 

 Routine SETGRP: Setting up the symmetry group for a 
 simple orthorhombic supercell.


 Subroutine GETGRP returns: Found  8 space group operations
 (whereof  2 operations were pure point group operations)
 out of a pool of  8 trial point group operations.


The constrained configuration has the point symmetry S_2 .
 The point group associated with its full space group is D_2h.


 Subroutine INISYM returns: Found  8 space group operations
 (whereof  2 operations are pure point group operations),
 and found     4 'primitive' translations


----------------------------------------------------------------------------------------

                                     Primitive cell                                     

  volume of cell :     182.1590

  direct lattice vectors                    reciprocal lattice vectors
     4.948357118  0.000000000  0.000000000     0.202087274  0.000000000  0.000000000
     0.000000000  5.088983188  0.000000000     0.000000000  0.196502909  0.000000000
     0.000000000  0.000000000  7.233668753     0.000000000  0.000000000  0.138242437

  length of vectors
     4.948357118  5.088983188  7.233668753     0.202087274  0.196502909  0.138242437

  position of ions in fractional coordinates (direct lattice)
     0.252301010  0.031394432  0.389988368
     0.252301010  0.468605564  0.610011602
     0.247698990  0.531394421  0.110011610
     0.247698990  0.968605501  0.889988398
     0.747698961  0.968605501  0.610011602
     0.747698961  0.531394421  0.389988368
     0.752301039  0.468605564  0.889988398
     0.752301039  0.031394432  0.110011610
     0.107072531  0.102390997  0.654148561
     0.107072531  0.397608992  0.345851469
     0.392927454  0.602391023  0.845851439
     0.392927454  0.897608899  0.154148517
     0.892927514  0.897608899  0.345851469
     0.892927514  0.602391023  0.654148561
     0.607072486  0.397608992  0.154148517
     0.607072486  0.102390997  0.845851439
     0.050188047  0.249999994  0.000000000
     0.449811960  0.749999961  0.500000000
     0.949811900  0.749999961  0.000000000
     0.550188099  0.249999994  0.500000000

  ion indices of the primitive-cell ions
   primitive index   ion index
                 1           1
                 2           5
                 3          10
                 4          14
                 5          18
                 6          22
                 7          27
                 8          31
                 9          33
                10          37
                11          42
                12          46
                13          52
                14          56
                15          57
                16          61
                17          65
                18          70
                19          76
                20          77

----------------------------------------------------------------------------------------



 KPOINTS: k-points                                

Automatic generation of k-mesh.
 Grid dimensions read from file:
 generate k-points for:    4    4    4

 Generating k-lattice:

  Cartesian coordinates                     Fractional coordinates (reciprocal lattice)
     0.025260909  0.000000000  0.000000000     0.250000000  0.000000000  0.000000000
     0.000000000  0.024562864  0.000000000     0.000000000  0.250000000  0.000000000
     0.000000000  0.000000000  0.034560609     0.000000000  0.000000000  0.250000000

  Length of vectors
     0.025260909  0.024562864  0.034560609

  Shift w.r.t. Gamma in fractional coordinates (k-lattice)
     0.500000000  0.500000000  0.500000000

 
 Subroutine IBZKPT returns following result:
 ===========================================
 
 Found      8 irreducible k-points:
 
 Following reciprocal coordinates:
            Coordinates               Weight
  0.125000  0.125000  0.125000      8.000000
  0.375000  0.125000  0.125000      8.000000
  0.125000  0.375000  0.125000      8.000000
  0.375000  0.375000  0.125000      8.000000
  0.125000  0.125000  0.375000      8.000000
  0.375000  0.125000  0.375000      8.000000
  0.125000  0.375000  0.375000      8.000000
  0.375000  0.375000  0.375000      8.000000
 
 Following cartesian coordinates:
            Coordinates               Weight
  0.012630  0.012281  0.017280      8.000000
  0.037891  0.012281  0.017280      8.000000
  0.012630  0.036844  0.017280      8.000000
  0.037891  0.036844  0.017280      8.000000
  0.012630  0.012281  0.051841      8.000000
  0.037891  0.012281  0.051841      8.000000
  0.012630  0.036844  0.051841      8.000000
  0.037891  0.036844  0.051841      8.000000
 


--------------------------------------------------------------------------------------------------------




 Dimension of arrays:
   k-points           NKPTS =      8   k-points in BZ     NKDIM =      8   number of bands    NBANDS=    233
   number of dos      NEDOS =    301   number of ions     NIONS =     80
   non local maximal  LDIM  =      4   non local SUM 2l+1 LMDIM =      8
   total plane-waves  NPLWV =  86400
   max r-space proj   IRMAX =   1356   max aug-charges    IRDMAX=   4814
   dimension x,y,z NGX =    48 NGY =   50 NGZ =   36
   dimension x,y,z NGXF=    96 NGYF=  100 NGZF=   72
   support grid    NGXF=    96 NGYF=  100 NGZF=   72
   ions per type =              32  48
   NGX,Y,Z   is equivalent  to a cutoff of   8.06,  8.17,  8.27 a.u.
   NGXF,Y,Z  is equivalent  to a cutoff of  16.13, 16.33, 16.55 a.u.

 SYSTEM =  Alumina_orthorombic_cell_under_strain   
 POSCAR =     Al  O                                

 Startparameter for this run:
   NWRITE =      2    write-flag & timer
   PREC   = normal    normal or accurate (medium, high low for compatibility)
   ISTART =      0    job   : 0-new  1-cont  2-samecut
   ICHARG =      2    charge: 1-file 2-atom 10-const
   ISPIN  =      1    spin polarized calculation?
   LNONCOLLINEAR =      F non collinear calculations
   LSORBIT =      F    spin-orbit coupling
   INIWAV =      1    electr: 0-lowe 1-rand  2-diag
   LASPH  =      F    aspherical Exc in radial PAW
 Electronic Relaxation 1
   ENCUT  =  400.0 eV  29.40 Ry    5.42 a.u.  16.14 16.60 11.80*2*pi/ulx,y,z
   ENINI  =  400.0     initial cutoff
   ENAUG  =  605.4 eV  augmentation charge cutoff
   NELM   =    100;   NELMIN=  2; NELMDL= -5     # of ELM steps 
   EDIFF  = 0.1E-05   stopping-criterion for ELM
   LREAL  =      T    real-space projection
   NLSPLINE    = F    spline interpolate recip. space projectors
   LCOMPAT=      F    compatible to vasp.4.4
   GGA_COMPAT  = T    GGA compatible to vasp.4.4-vasp.4.6
   LMAXPAW     = -100 max onsite density
   LMAXMIX     =    2 max onsite mixed and CHGCAR
   VOSKOWN=      0    Vosko Wilk Nusair interpolation
   ROPT   =   -0.00050  -0.00050
 Ionic relaxation
   EDIFFG = -.1E-02   stopping-criterion for IOM
   NSW    =      0    number of steps for IOM
   NBLOCK =      1;   KBLOCK =      1    inner block; outer block 
   IBRION =     -1    ionic relax: 0-MD 1-quasi-New 2-CG
   NFREE  =      0    steps in history (QN), initial steepest desc. (CG)
   ISIF   =      2    stress and relaxation
   IWAVPR =     10    prediction:  0-non 1-charg 2-wave 3-comb
   ISYM   =      2    0-nonsym 1-usesym 2-fastsym
   LCORR  =      T    Harris-Foulkes like correction to forces

   POTIM  = 0.5000    time-step for ionic-motion
   TEIN   =    0.0    initial temperature
   TEBEG  =    0.0;   TEEND  =   0.0 temperature during run
   SMASS  =  -3.00    Nose mass-parameter (am)
   estimated Nose-frequenzy (Omega)   =  0.10E-29 period in steps = 0.13E+47 mass=  -0.224E-26a.u.
   SCALEE = 1.0000    scale energy and forces
   NPACO  =    256;   APACO  = 10.0  distance and # of slots for P.C.
   PSTRESS=    0.0 pullay stress

  Mass of Ions in am
   POMASS =  26.98 16.00
  Ionic Valenz
   ZVAL   =   3.00  6.00
  Atomic Wigner-Seitz radii
   RWIGS  =  -1.00 -1.00
  virtual crystal weights 
   VCA    =   1.00  1.00
   NELECT =     384.0000    total number of electrons
   NUPDOWN=      -1.0000    fix difference up-down

 DOS related values:
   EMIN   =  10.00;   EMAX   =-10.00  energy-range for DOS
   EFERMI =   0.00
   ISMEAR =     1;   SIGMA  =   0.03  broadening in eV -4-tet -1-fermi 0-gaus

 Electronic relaxation 2 (details)
   IALGO  =     38    algorithm
   LDIAG  =      T    sub-space diagonalisation (order eigenvalues)
   LSUBROT=      F    optimize rotation matrix (better conditioning)
   TURBO    =      0    0=normal 1=particle mesh
   IRESTART =      0    0=no restart 2=restart with 2 vectors
   NREBOOT  =      0    no. of reboots
   NMIN     =      0    reboot dimension
   EREF     =   0.00    reference energy to select bands
   IMIX   =      4    mixing-type and parameters
     AMIX     =   0.40;   BMIX     =  1.00
     AMIX_MAG =   1.60;   BMIX_MAG =  1.00
     AMIN     =   0.10
     WC   =   100.;   INIMIX=   1;  MIXPRE=   1;  MAXMIX= -45

 Intra band minimization:
   WEIMIN = 0.0000     energy-eigenvalue tresh-hold
   EBREAK =  0.11E-08  absolut break condition
   DEPER  =   0.30     relativ break condition  

   TIME   =   0.40     timestep for ELM

  volume/ion in A,a.u.               =       9.11        61.46
  Fermi-wavevector in a.u.,A,eV,Ry     =   1.322356  2.498890 23.791489  1.748625
  Thomas-Fermi vector in A             =   2.452043

 Write flags
   LWAVE        =      T    write WAVECAR
   LDOWNSAMPLE  =      F    k-point downsampling of WAVECAR
   LCHARG       =      T    write CHGCAR
   LVTOT        =      F    write LOCPOT, total local potential
   LVHAR        =      F    write LOCPOT, Hartree potential only
   LELF         =      F    write electronic localiz. function (ELF)
   LORBIT       =      0    0 simple, 1 ext, 2 COOP (PROOUT), +10 PAW based schemes


 Dipole corrections
   LMONO  =      F    monopole corrections only (constant potential shift)
   LDIPOL =      F    correct potential (dipole corrections)
   IDIPOL =      0    1-x, 2-y, 3-z, 4-all directions 
   EPSILON=  1.0000000 bulk dielectric constant

 Exchange correlation treatment:
   GGA     =    --    GGA type
   LEXCH   =     8    internal setting for exchange type
   LIBXC   =     F    Libxc                    
   VOSKOWN =     0    Vosko Wilk Nusair interpolation
   LHFCALC =     F    Hartree Fock is set to
   LHFONE  =     F    Hartree Fock one center treatment
   AEXX    =    0.0000 exact exchange contribution

 Linear response parameters
   LEPSILON=     F    determine dielectric tensor
   LRPA    =     F    only Hartree local field effects (RPA)
   LNABLA  =     F    use nabla operator in PAW spheres
   LVEL    =     F    velocity operator in full k-point grid
   CSHIFT  =0.1000    complex shift for real part using Kramers Kronig
   OMEGAMAX=  -1.0    maximum frequency
   DEG_THRESHOLD= 0.2000000E-02 threshold for treating states as degnerate
   RTIME   =   -0.100 relaxation time in fs
  (WPLASMAI=    0.000 imaginary part of plasma frequency in eV, 0.658/RTIME)
   DFIELD  = 0.0000000 0.0000000 0.0000000 field for delta impulse in time

  Optional k-point grid parameters
   LKPOINTS_OPT  =     F    use optional k-point grid
   KPOINTS_OPT_MODE=     1    mode for optional k-point grid

 Orbital magnetization related:
   ORBITALMAG=     F  switch on orbital magnetization
   LCHIMAG   =     F  perturbation theory with respect to B field
   DQ        =  0.001000  dq finite difference perturbation B field
   LLRAUG    =     F  two centre corrections for induced B field



--------------------------------------------------------------------------------------------------------


 Static calculation
 charge density and potential will be updated during run
 non-spin polarized calculation
 Variant of blocked Davidson
 Davidson routine will perform the subspace rotation
 perform sub-space diagonalisation
    after iterative eigenvector-optimisation
 modified Broyden-mixing scheme, WC =      100.0
 initial mixing is a Kerker type mixing with AMIX =  0.4000 and BMIX =      1.0000
 Hartree-type preconditioning will be used
 using additional bands           41
 real space projection scheme for non local part
 use partial core corrections
 calculate Harris-corrections to forces   (improved forces if not selfconsistent)
 use gradient corrections 
 use of overlap-Matrix (Vanderbilt PP)
 Methfessel and Paxton  Order N= 1 SIGMA  =   0.03


--------------------------------------------------------------------------------------------------------


  energy-cutoff  :      400.00
  volume of cell :      728.64
      direct lattice vectors                 reciprocal lattice vectors
     9.896714236  0.000000000  0.000000000     0.101043637  0.000000000  0.000000000
     0.000000000 10.177966148  0.000000000     0.000000000  0.098251457  0.000000000
     0.000000000  0.000000000  7.233668753     0.000000000  0.000000000  0.138242437

  length of vectors
     9.896714236 10.177966148  7.233668753     0.101043637  0.098251457  0.138242437



 k-points in units of 2pi/SCALE and weight: k-points                                
   0.01263045  0.01228143  0.01728030       0.125
   0.03789136  0.01228143  0.01728030       0.125
   0.01263045  0.03684430  0.01728030       0.125
   0.03789136  0.03684430  0.01728030       0.125
   0.01263045  0.01228143  0.05184091       0.125
   0.03789136  0.01228143  0.05184091       0.125
   0.01263045  0.03684430  0.05184091       0.125
   0.03789136  0.03684430  0.05184091       0.125

 k-points in reciprocal lattice and weights: k-points                                
   0.12500000  0.12500000  0.12500000       0.125
   0.37500000  0.12500000  0.12500000       0.125
   0.12500000  0.37500000  0.12500000       0.125
   0.37500000  0.37500000  0.12500000       0.125
   0.12500000  0.12500000  0.37500000       0.125
   0.37500000  0.12500000  0.37500000       0.125
   0.12500000  0.37500000  0.37500000       0.125
   0.37500000  0.37500000  0.37500000       0.125

 position of ions in fractional coordinates (direct lattice) 
   0.12615050  0.01569722  0.38998837
   0.12615050  0.51569723  0.38998837
   0.62615052  0.01569722  0.38998837
   0.62615052  0.51569723  0.38998837
   0.12615050  0.23430279  0.61001160
   0.12615050  0.73430277  0.61001160
   0.62615052  0.23430279  0.61001160
   0.62615052  0.73430277  0.61001160
   0.12384950  0.26569723  0.11001161
   0.12384950  0.76569723  0.11001161
   0.62384948  0.26569723  0.11001161
   0.62384948  0.76569723  0.11001161
   0.12384950  0.48430277  0.88998840
   0.12384950  0.98430277  0.88998840
   0.62384948  0.48430277  0.88998840
   0.62384948  0.98430277  0.88998840
   0.37384948  0.48430277  0.61001160
   0.37384948  0.98430277  0.61001160
   0.87384948  0.48430277  0.61001160
   0.87384948  0.98430277  0.61001160
   0.37384948  0.26569723  0.38998837
   0.37384948  0.76569723  0.38998837
   0.87384948  0.26569723  0.38998837
   0.87384948  0.76569723  0.38998837
   0.37615052  0.23430279  0.88998840
   0.37615052  0.73430277  0.88998840
   0.87615052  0.23430279  0.88998840
   0.87615052  0.73430277  0.88998840
   0.37615052  0.01569722  0.11001161
   0.37615052  0.51569723  0.11001161
   0.87615052  0.01569722  0.11001161
   0.87615052  0.51569723  0.11001161
   0.05353627  0.05119550  0.65414856
   0.05353627  0.55119553  0.65414856
   0.55353624  0.05119550  0.65414856
   0.55353624  0.55119553  0.65414856
   0.05353627  0.19880450  0.34585147
   0.05353627  0.69880447  0.34585147
   0.55353624  0.19880450  0.34585147
   0.55353624  0.69880447  0.34585147
   0.19646373  0.30119550  0.84585144
   0.19646373  0.80119553  0.84585144
   0.69646370  0.30119550  0.84585144
   0.69646370  0.80119553  0.84585144
   0.19646373  0.44880450  0.15414852
   0.19646373  0.94880447  0.15414852
   0.69646370  0.44880450  0.15414852
   0.69646370  0.94880447  0.15414852
   0.44646376  0.44880450  0.34585147
   0.44646376  0.94880447  0.34585147
   0.94646376  0.44880450  0.34585147
   0.94646376  0.94880447  0.34585147
   0.44646376  0.30119550  0.65414856
   0.44646376  0.80119553  0.65414856
   0.94646376  0.30119550  0.65414856
   0.94646376  0.80119553  0.65414856
   0.30353624  0.19880450  0.15414852
   0.30353624  0.69880447  0.15414852
   0.80353624  0.19880450  0.15414852
   0.80353624  0.69880447  0.15414852
   0.30353624  0.05119550  0.84585144
   0.30353624  0.55119553  0.84585144
   0.80353624  0.05119550  0.84585144
   0.80353624  0.55119553  0.84585144
   0.02509402  0.12500000  0.00000000
   0.02509402  0.62500000  0.00000000
   0.52509405  0.12500000  0.00000000
   0.52509405  0.62500000  0.00000000
   0.22490598  0.37500000  0.50000000
   0.22490598  0.87500000  0.50000000
   0.72490601  0.37500000  0.50000000
   0.72490601  0.87500000  0.50000000
   0.47490595  0.37500000  0.00000000
   0.47490595  0.87500000  0.00000000
   0.97490595  0.37500000  0.00000000
   0.97490595  0.87500000  0.00000000
   0.27509405  0.12500000  0.50000000
   0.27509405  0.62500000  0.50000000
   0.77509405  0.12500000  0.50000000
   0.77509405  0.62500000  0.50000000

 position of ions in cartesian coordinates  (Angst):
   1.24847550  0.15976574  2.82104667
   1.24847550  5.24874893  2.82104667
   6.19683276  0.15976574  2.82104667
   6.19683276  5.24874893  2.82104667
   1.24847550  2.38472584  4.41262187
   1.24847550  7.47370876  4.41262187
   6.19683276  2.38472584  4.41262187
   6.19683276  7.47370876  4.41262187
   1.22570306  2.70425739  0.79578754
   1.22570306  7.79324046  0.79578754
   6.17406003  2.70425739  0.79578754
   6.17406003  7.79324046  0.79578754
   1.22570306  4.92921722  6.43788126
   1.22570306 10.01820030  6.43788126
   6.17406003  4.92921722  6.43788126
   6.17406003 10.01820030  6.43788126
   3.69988147  4.92921722  4.41262187
   3.69988147 10.01820030  4.41262187
   8.64823859  4.92921722  4.41262187
   8.64823859 10.01820030  4.41262187
   3.69988147  2.70425739  2.82104667
   3.69988147  7.79324046  2.82104667
   8.64823859  2.70425739  2.82104667
   8.64823859  7.79324046  2.82104667
   3.72265420  2.38472584  6.43788126
   3.72265420  7.47370876  6.43788126
   8.67101132  2.38472584  6.43788126
   8.67101132  7.47370876  6.43788126
   3.72265420  0.15976574  0.79578754
   3.72265420  5.24874893  0.79578754
   8.67101132  0.15976574  0.79578754
   8.67101132  5.24874893  0.79578754
   0.52983312  0.52106606  4.73189401
   0.52983312  5.61004944  4.73189401
   5.47819002  0.52106606  4.73189401
   5.47819002  5.61004944  4.73189401
   0.52983312  2.02342548  2.50177496
   0.52983312  7.11240825  2.50177496
   5.47819002  2.02342548  2.50177496
   5.47819002  7.11240825  2.50177496
   1.94434537  3.06555760  6.11860912
   1.94434537  8.15454098  6.11860912
   6.89270219  3.06555760  6.11860912
   6.89270219  8.15454098  6.11860912
   1.94434537  4.56791701  1.11505931
   1.94434537  9.65689978  1.11505931
   6.89270219  4.56791701  1.11505931
   6.89270219  9.65689978  1.11505931
   4.41852422  4.56791701  2.50177496
   4.41852422  9.65689978  2.50177496
   9.36688134  4.56791701  2.50177496
   9.36688134  9.65689978  2.50177496
   4.41852422  3.06555760  4.73189401
   4.41852422  8.15454098  4.73189401
   9.36688134  3.06555760  4.73189401
   9.36688134  8.15454098  4.73189401
   3.00401146  2.02342548  1.11505931
   3.00401146  7.11240825  1.11505931
   7.95236858  2.02342548  1.11505931
   7.95236858  7.11240825  1.11505931
   3.00401146  0.52106606  6.11860912
   3.00401146  5.61004944  6.11860912
   7.95236858  0.52106606  6.11860912
   7.95236858  5.61004944  6.11860912
   0.24834838  1.27224577  0.00000000
   0.24834838  6.36122884  0.00000000
   5.19670576  1.27224577  0.00000000
   5.19670576  6.36122884  0.00000000
   2.22583021  3.81673731  3.61683438
   2.22583021  8.90572038  3.61683438
   7.17418763  3.81673731  3.61683438
   7.17418763  8.90572038  3.61683438
   4.70000848  3.81673731  0.00000000
   4.70000848  8.90572038  0.00000000
   9.64836560  3.81673731  0.00000000
   9.64836560  8.90572038  0.00000000
   2.72252720  1.27224577  3.61683438
   2.72252720  6.36122884  3.61683438
   7.67088432  1.27224577  3.61683438
   7.67088432  6.36122884  3.61683438



--------------------------------------------------------------------------------------------------------


 k-point   1 :   0.1250 0.1250 0.1250  plane waves:   13226
 k-point   2 :   0.3750 0.1250 0.1250  plane waves:   13268
 k-point   3 :   0.1250 0.3750 0.1250  plane waves:   13226
 k-point   4 :   0.3750 0.3750 0.1250  plane waves:   13225
 k-point   5 :   0.1250 0.1250 0.3750  plane waves:   13251
 k-point   6 :   0.3750 0.1250 0.3750  plane waves:   13236
 k-point   7 :   0.1250 0.3750 0.3750  plane waves:   13236
 k-point   8 :   0.3750 0.3750 0.3750  plane waves:   13245

 maximum and minimum number of plane-waves per node :     13268    13225

 maximum number of plane-waves:     13268
 maximum index in each direction: 
   IXMAX=   16   IYMAX=   16   IZMAX=   11
   IXMIN=  -16   IYMIN=  -16   IZMIN=  -12


 serial   3D FFT for wavefunctions
 parallel 3D FFT for charge:
    minimum data exchange during FFTs selected (reduces bandwidth)


 total amount of memory used by VASP MPI-rank0   520313. kBytes
=======================================================================

   base      :      30000. kBytes
   nonlr-proj:       8123. kBytes
   fftplans  :      24184. kBytes
   grid      :      42969. kBytes
   one-center:        245. kBytes
   wavefun   :     414792. kBytes

     INWAV:  cpu time      0.0002: real time      0.0003
 Broyden mixing: mesh for mixing (old mesh)
   NGX = 33   NGY = 33   NGZ = 23
  (NGX  = 96   NGY  =100   NGZ  = 72)
  gives a total of  25047 points

 initial charge density was supplied:
 charge density of overlapping atoms calculated
 number of electron     384.0000000 magnetization 
 keeping initial charge density in first step


--------------------------------------------------------------------------------------------------------


 Maximum index for non-local projection operator         1289
 Maximum index for augmentation-charges         4466 (set IRDMAX)


--------------------------------------------------------------------------------------------------------


 First call to EWALD:  gamma=   0.197
 Maximum number of real-space cells 3x 2x 3
 Maximum number of reciprocal cells 3x 3x 2

    FEWALD:  cpu time      0.0862: real time      0.0865


--------------------------------------- Iteration      1(   1)  ---------------------------------------


    POTLOK:  cpu time      0.3376: real time      0.3392
    SETDIJ:  cpu time      0.0800: real time      0.0803
     EDDAV:  cpu time     46.6358: real time     47.1088
       DOS:  cpu time      0.0022: real time      0.0024
    --------------------------------------------
      LOOP:  cpu time     47.0556: real time     47.5308

 eigenvalue-minimisations  :  3728
 total energy-change (2. order) : 0.1851917E+04  (-0.1739041E+05)
 number of electron     384.0000000 magnetization 
 augmentation part      384.0000000 magnetization 

 Free energy of the ion-electron system (eV)
  ---------------------------------------------------
  alpha Z        PSCENC =       566.96399789
  Ewald energy   TEWEN  =    -18918.09940529
  -Hartree energ DENC   =     -5163.21218282
  -exchange      EXHF   =         0.00000000
  -V(xc)+E(xc)   XCENC  =       517.85590560
  PAW double counting   =     18752.77991877   -17816.57094691
  entropy T*S    EENTRO =        -0.00130520
  eigenvalues    EBANDS =      1450.34653979
  atomic energy  EATOM  =     22461.85434800
  Solvation  Ediel_sol  =         0.00000000
  ---------------------------------------------------
  free energy    TOTEN  =      1851.91686983 eV

  energy without entropy =     1851.91817503  energy(sigma->0) =     1851.91730490


--------------------------------------------------------------------------------------------------------




--------------------------------------- Iteration      1(   2)  ---------------------------------------


     EDDAV:  cpu time     53.1156: real time     53.6743
       DOS:  cpu time      0.0021: real time      0.0023
    --------------------------------------------
      LOOP:  cpu time     53.1177: real time     53.6767

 eigenvalue-minimisations  :  4416
 total energy-change (2. order) :-0.2365820E+04  (-0.2310635E+04)
 number of electron     384.0000000 magnetization 
 augmentation part      384.0000000 magnetization 

 Free energy of the ion-electron system (eV)
  ---------------------------------------------------
  alpha Z        PSCENC =       566.96399789
  Ewald energy   TEWEN  =    -18918.09940529
  -Hartree energ DENC   =     -5163.21218282
  -exchange      EXHF   =         0.00000000
  -V(xc)+E(xc)   XCENC  =       517.85590560
  PAW double counting   =     18752.77991877   -17816.57094691
  entropy T*S    EENTRO =         0.00018843
  eigenvalues    EBANDS =      -915.47514714
  atomic energy  EATOM  =     22461.85434800
  Solvation  Ediel_sol  =         0.00000000
  ---------------------------------------------------
  free energy    TOTEN  =      -513.90332346 eV

  energy without entropy =     -513.90351190  energy(sigma->0) =     -513.90338627


--------------------------------------------------------------------------------------------------------




--------------------------------------- Iteration      1(   3)  ---------------------------------------


     EDDAV:  cpu time     52.4643: real time     53.0115
       DOS:  cpu time      0.0025: real time      0.0027
    --------------------------------------------
      LOOP:  cpu time     52.4668: real time     53.0142

 eigenvalue-minimisations  :  4344
 total energy-change (2. order) :-0.1373716E+03  (-0.1366236E+03)
 number of electron     384.0000000 magnetization 
 augmentation part      384.0000000 magnetization 

 Free energy of the ion-electron system (eV)
  ---------------------------------------------------
  alpha Z        PSCENC =       566.96399789
  Ewald energy   TEWEN  =    -18918.09940529
  -Hartree energ DENC   =     -5163.21218282
  -exchange      EXHF   =         0.00000000
  -V(xc)+E(xc)   XCENC  =       517.85590560
  PAW double counting   =     18752.77991877   -17816.57094691
  entropy T*S    EENTRO =         0.00244188
  eigenvalues    EBANDS =     -1052.84897709
  atomic energy  EATOM  =     22461.85434800
  Solvation  Ediel_sol  =         0.00000000
  ---------------------------------------------------
  free energy    TOTEN  =      -651.27489997 eV

  energy without entropy =     -651.27734185  energy(sigma->0) =     -651.27571393


--------------------------------------------------------------------------------------------------------




--------------------------------------- Iteration      1(   4)  ---------------------------------------


     EDDAV:  cpu time     52.2826: real time     52.8051
       DOS:  cpu time      0.0026: real time      0.0028
    --------------------------------------------
      LOOP:  cpu time     52.2852: real time     52.8080

 eigenvalue-minimisations  :  4328
 total energy-change (2. order) :-0.1824623E+01  (-0.1816355E+01)
 number of electron     384.0000000 magnetization 
 augmentation part      384.0000000 magnetization 

 Free energy of the ion-electron system (eV)
  ---------------------------------------------------
  alpha Z        PSCENC =       566.96399789
  Ewald energy   TEWEN  =    -18918.09940529
  -Hartree energ DENC   =     -5163.21218282
  -exchange      EXHF   =         0.00000000
  -V(xc)+E(xc)   XCENC  =       517.85590560
  PAW double counting   =     18752.77991877   -17816.57094691
  entropy T*S    EENTRO =         0.00243857
  eigenvalues    EBANDS =     -1054.67359649
  atomic energy  EATOM  =     22461.85434800
  Solvation  Ediel_sol  =         0.00000000
  ---------------------------------------------------
  free energy    TOTEN  =      -653.09952268 eV

  energy without entropy =     -653.10196125  energy(sigma->0) =     -653.10033553


--------------------------------------------------------------------------------------------------------




--------------------------------------- Iteration      1(   5)  ---------------------------------------


     EDDAV:  cpu time     52.1513: real time     52.6727
       DOS:  cpu time      0.0025: real time      0.0027
    CHARGE:  cpu time      1.4367: real time      1.4497
    MIXING:  cpu time      0.0122: real time      0.0123
    --------------------------------------------
      LOOP:  cpu time     53.6027: real time     54.1375

 eigenvalue-minimisations  :  4312
 total energy-change (2. order) :-0.3901216E-01  (-0.3892443E-01)
 number of electron     384.0001592 magnetization 
 augmentation part       36.7608149 magnetization 

 Broyden mixing:
  rms(total) = 0.47400E+01    rms(broyden)= 0.47383E+01
  rms(prec ) = 0.62574E+01
  weight for this iteration     100.00

 Free energy of the ion-electron system (eV)
  ---------------------------------------------------
  alpha Z        PSCENC =       566.96399789
  Ewald energy   TEWEN  =    -18918.09940529
  -Hartree energ DENC   =     -5163.21218282
  -exchange      EXHF   =         0.00000000
  -V(xc)+E(xc)   XCENC  =       517.85590560
  PAW double counting   =     18752.77991877   -17816.57094691
  entropy T*S    EENTRO =         0.00244058
  eigenvalues    EBANDS =     -1054.71261065
  atomic energy  EATOM  =     22461.85434800
  Solvation  Ediel_sol  =         0.00000000
  ---------------------------------------------------
  free energy    TOTEN  =      -653.13853483 eV

  energy without entropy =     -653.14097541  energy(sigma->0) =     -653.13934836


--------------------------------------------------------------------------------------------------------




--------------------------------------- Iteration      1(   6)  ---------------------------------------


    POTLOK:  cpu time      0.3438: real time      0.3463
    SETDIJ:  cpu time      0.0816: real time      0.0819
     EDDAV:  cpu time     49.7355: real time     50.2165
       DOS:  cpu time      0.0024: real time      0.0026
    CHARGE:  cpu time      1.4394: real time      1.4525
    MIXING:  cpu time      0.0125: real time      0.0125
    --------------------------------------------
      LOOP:  cpu time     51.6152: real time     52.1124

 eigenvalue-minimisations  :  4112
 total energy-change (2. order) : 0.6268140E+02  (-0.2893922E+02)
 number of electron     384.0001336 magnetization 
 augmentation part       30.7078453 magnetization 

 Broyden mixing:
  rms(total) = 0.16669E+01    rms(broyden)= 0.16643E+01
  rms(prec ) = 0.18492E+01
  weight for this iteration     100.00

 eigenvalues of (default mixing * dielectric matrix)
  average eigenvalue GAMMA=   0.9148
  0.9148

 Free energy of the ion-electron system (eV)
  ---------------------------------------------------
  alpha Z        PSCENC =       566.96399789
  Ewald energy   TEWEN  =    -18918.09940529
  -Hartree energ DENC   =     -5918.67642788
  -exchange      EXHF   =         0.00000000
  -V(xc)+E(xc)   XCENC  =       570.40108074
  PAW double counting   =     23576.61042191   -22653.75256095
  entropy T*S    EENTRO =         0.00081380
  eigenvalues    EBANDS =      -275.75940327
  atomic energy  EATOM  =     22461.85434800
  Solvation  Ediel_sol  =         0.00000000
  ---------------------------------------------------
  free energy    TOTEN  =      -590.45713503 eV

  energy without entropy =     -590.45794884  energy(sigma->0) =     -590.45740630


--------------------------------------------------------------------------------------------------------




--------------------------------------- Iteration      1(   7)  ---------------------------------------


    POTLOK:  cpu time      0.3461: real time      0.3485
    SETDIJ:  cpu time      0.0790: real time      0.0793
     EDDAV:  cpu time     51.5273: real time     52.0780
       DOS:  cpu time      0.0024: real time      0.0026
    CHARGE:  cpu time      1.4420: real time      1.4553
    MIXING:  cpu time      0.0128: real time      0.0129
    --------------------------------------------
      LOOP:  cpu time     53.4094: real time     53.9767

 eigenvalue-minimisations  :  4296
 total energy-change (2. order) : 0.7839305E-02  (-0.5250897E+00)
 number of electron     384.0001335 magnetization 
 augmentation part       30.5662707 magnetization 

 Broyden mixing:
  rms(total) = 0.92818E+00    rms(broyden)= 0.92808E+00
  rms(prec ) = 0.10520E+01
  weight for this iteration     100.00

 eigenvalues of (default mixing * dielectric matrix)
  average eigenvalue GAMMA=   1.2923
  1.1208  1.4639

 Free energy of the ion-electron system (eV)
  ---------------------------------------------------
  alpha Z        PSCENC =       566.96399789
  Ewald energy   TEWEN  =    -18918.09940529
  -Hartree energ DENC   =     -5955.18533494
  -exchange      EXHF   =         0.00000000
  -V(xc)+E(xc)   XCENC  =       573.75442608
  PAW double counting   =     26746.13426002   -25821.82028626
  entropy T*S    EENTRO =         0.00071651
  eigenvalues    EBANDS =      -244.05201773
  atomic energy  EATOM  =     22461.85434800
  Solvation  Ediel_sol  =         0.00000000
  ---------------------------------------------------
  free energy    TOTEN  =      -590.44929573 eV

  energy without entropy =     -590.45001223  energy(sigma->0) =     -590.44953456


--------------------------------------------------------------------------------------------------------




--------------------------------------- Iteration      1(   8)  ---------------------------------------


    POTLOK:  cpu time      0.3563: real time      0.3592
    SETDIJ:  cpu time      0.0797: real time      0.0800
     EDDAV:  cpu time     51.0935: real time     51.6172
       DOS:  cpu time      0.0024: real time      0.0026
    CHARGE:  cpu time      1.4505: real time      1.4640
    MIXING:  cpu time      0.0142: real time      0.0143
    --------------------------------------------
      LOOP:  cpu time     52.9965: real time     53.5373

 eigenvalue-minimisations  :  4256
 total energy-change (2. order) : 0.6435100E-01  (-0.4981506E-01)
 number of electron     384.0001337 magnetization 
 augmentation part       30.6113132 magnetization 

 Broyden mixing:
  rms(total) = 0.28578E+00    rms(broyden)= 0.28577E+00
  rms(prec ) = 0.33365E+00
  weight for this iteration     100.00

 eigenvalues of (default mixing * dielectric matrix)
  average eigenvalue GAMMA=   1.5519
  2.5355  1.0601  1.0601

 Free energy of the ion-electron system (eV)
  ---------------------------------------------------
  alpha Z        PSCENC =       566.96399789
  Ewald energy   TEWEN  =    -18918.09940529
  -Hartree energ DENC   =     -5978.56023995
  -exchange      EXHF   =         0.00000000
  -V(xc)+E(xc)   XCENC  =       576.62904356
  PAW double counting   =     29334.86513361   -28409.52958003
  entropy T*S    EENTRO =         0.00074585
  eigenvalues    EBANDS =      -224.50898837
  atomic energy  EATOM  =     22461.85434800
  Solvation  Ediel_sol  =         0.00000000
  ---------------------------------------------------
  free energy    TOTEN  =      -590.38494472 eV

  energy without entropy =     -590.38569057  energy(sigma->0) =     -590.38519334


--------------------------------------------------------------------------------------------------------




--------------------------------------- Iteration      1(   9)  ---------------------------------------


    POTLOK:  cpu time      0.3610: real time      0.3639
    SETDIJ:  cpu time      0.0837: real time      0.0841
     EDDAV:  cpu time     51.4246: real time     51.9300
       DOS:  cpu time      0.0024: real time      0.0026
    CHARGE:  cpu time      1.4435: real time      1.4569
    MIXING:  cpu time      0.0136: real time      0.0137
    --------------------------------------------
      LOOP:  cpu time     53.3287: real time     53.8512

 eigenvalue-minimisations  :  4280
 total energy-change (2. order) :-0.5020322E-01  (-0.1370747E-01)
 number of electron     384.0001336 magnetization 
 augmentation part       30.5753992 magnetization 

 Broyden mixing:
  rms(total) = 0.68500E-01    rms(broyden)= 0.68496E-01
  rms(prec ) = 0.71267E-01
  weight for this iteration     100.00

 eigenvalues of (default mixing * dielectric matrix)
  average eigenvalue GAMMA=   1.7251
  1.0125  1.0125  2.5119  2.3634

 Free energy of the ion-electron system (eV)
  ---------------------------------------------------
  alpha Z        PSCENC =       566.96399789
  Ewald energy   TEWEN  =    -18918.09940529
  -Hartree energ DENC   =     -6002.60815751
  -exchange      EXHF   =         0.00000000
  -V(xc)+E(xc)   XCENC  =       579.08472550
  PAW double counting   =     30370.30019765   -29444.70417917
  entropy T*S    EENTRO =         0.00074644
  eigenvalues    EBANDS =      -203.22742146
  atomic energy  EATOM  =     22461.85434800
  Solvation  Ediel_sol  =         0.00000000
  ---------------------------------------------------
  free energy    TOTEN  =      -590.43514794 eV

  energy without entropy =     -590.43589439  energy(sigma->0) =     -590.43539676


--------------------------------------------------------------------------------------------------------




--------------------------------------- Iteration      1(  10)  ---------------------------------------


    POTLOK:  cpu time      0.3501: real time      0.3529
    SETDIJ:  cpu time      0.0794: real time      0.0798
     EDDAV:  cpu time     51.4646: real time     51.9639
       DOS:  cpu time      0.0024: real time      0.0027
    CHARGE:  cpu time      1.4531: real time      1.4756
    MIXING:  cpu time      0.0157: real time      0.0160
    --------------------------------------------
      LOOP:  cpu time     53.3654: real time     53.8908

 eigenvalue-minimisations  :  4304
 total energy-change (2. order) :-0.6434963E-02  (-0.2457266E-02)
 number of electron     384.0001336 magnetization 
 augmentation part       30.5387805 magnetization 

 Broyden mixing:
  rms(total) = 0.29717E-01    rms(broyden)= 0.29700E-01
  rms(prec ) = 0.35396E-01
  weight for this iteration     100.00

 eigenvalues of (default mixing * dielectric matrix)
  average eigenvalue GAMMA=   1.5563
  2.6789  2.3794  0.9979  0.9979  0.7275

 Free energy of the ion-electron system (eV)
  ---------------------------------------------------
  alpha Z        PSCENC =       566.96399789
  Ewald energy   TEWEN  =    -18918.09940529
  -Hartree energ DENC   =     -6006.90724560
  -exchange      EXHF   =         0.00000000
  -V(xc)+E(xc)   XCENC  =       579.44497620
  PAW double counting   =     30015.01629201   -29089.54564691
  entropy T*S    EENTRO =         0.00072685
  eigenvalues    EBANDS =      -199.16962606
  atomic energy  EATOM  =     22461.85434800
  Solvation  Ediel_sol  =         0.00000000
  ---------------------------------------------------
  free energy    TOTEN  =      -590.44158291 eV

  energy without entropy =     -590.44230976  energy(sigma->0) =     -590.44182519


--------------------------------------------------------------------------------------------------------




--------------------------------------- Iteration      1(  11)  ---------------------------------------


    POTLOK:  cpu time      0.3566: real time      0.3595
    SETDIJ:  cpu time      0.0793: real time      0.0809
     EDDAV:  cpu time     51.5074: real time     52.0537
       DOS:  cpu time      0.0024: real time      0.0026
    CHARGE:  cpu time      1.5551: real time      1.5695
    MIXING:  cpu time      0.0168: real time      0.0169
    --------------------------------------------
      LOOP:  cpu time     53.5175: real time     54.0831

 eigenvalue-minimisations  :  4280
 total energy-change (2. order) : 0.9478505E-03  (-0.4654511E-03)
 number of electron     384.0001336 magnetization 
 augmentation part       30.5579845 magnetization 

 Broyden mixing:
  rms(total) = 0.16287E-01    rms(broyden)= 0.16285E-01
  rms(prec ) = 0.18545E-01
  weight for this iteration     100.00

 eigenvalues of (default mixing * dielectric matrix)
  average eigenvalue GAMMA=   1.5568
  2.7658  2.4388  1.0094  1.0094  1.0587  1.0587

 Free energy of the ion-electron system (eV)
  ---------------------------------------------------
  alpha Z        PSCENC =       566.96399789
  Ewald energy   TEWEN  =    -18918.09940529
  -Hartree energ DENC   =     -6005.32956888
  -exchange      EXHF   =         0.00000000
  -V(xc)+E(xc)   XCENC  =       579.34623622
  PAW double counting   =     29983.70895209   -29058.19684551
  entropy T*S    EENTRO =         0.00073538
  eigenvalues    EBANDS =      -200.68908496
  atomic energy  EATOM  =     22461.85434800
  Solvation  Ediel_sol  =         0.00000000
  ---------------------------------------------------
  free energy    TOTEN  =      -590.44063506 eV

  energy without entropy =     -590.44137044  energy(sigma->0) =     -590.44088018


--------------------------------------------------------------------------------------------------------




--------------------------------------- Iteration      1(  12)  ---------------------------------------


    POTLOK:  cpu time      0.3540: real time      0.3568
    SETDIJ:  cpu time      0.0789: real time      0.0795
     EDDAV:  cpu time     51.5953: real time     52.1586
       DOS:  cpu time      0.0024: real time      0.0026
    CHARGE:  cpu time      1.5512: real time      1.5705
    MIXING:  cpu time      0.0164: real time      0.0165
    --------------------------------------------
      LOOP:  cpu time     53.5981: real time     54.1845

 eigenvalue-minimisations  :  4288
 total energy-change (2. order) :-0.2039833E-05  (-0.2861525E-03)
 number of electron     384.0001336 magnetization 
 augmentation part       30.5606132 magnetization 

 Broyden mixing:
  rms(total) = 0.63054E-02    rms(broyden)= 0.62910E-02
  rms(prec ) = 0.75363E-02
  weight for this iteration     100.00

 eigenvalues of (default mixing * dielectric matrix)
  average eigenvalue GAMMA=   1.4724
  2.8650  2.4507  1.0791  1.0791  0.9732  0.9299  0.9299

 Free energy of the ion-electron system (eV)
  ---------------------------------------------------
  alpha Z        PSCENC =       566.96399789
  Ewald energy   TEWEN  =    -18918.09940529
  -Hartree energ DENC   =     -6005.30575871
  -exchange      EXHF   =         0.00000000
  -V(xc)+E(xc)   XCENC  =       579.34692591
  PAW double counting   =     29935.88930525   -29010.38791422
  entropy T*S    EENTRO =         0.00074148
  eigenvalues    EBANDS =      -200.70287740
  atomic energy  EATOM  =     22461.85434800
  Solvation  Ediel_sol  =         0.00000000
  ---------------------------------------------------
  free energy    TOTEN  =      -590.44063710 eV

  energy without entropy =     -590.44137857  energy(sigma->0) =     -590.44088425


--------------------------------------------------------------------------------------------------------




--------------------------------------- Iteration      1(  13)  ---------------------------------------


    POTLOK:  cpu time      0.3484: real time      0.3512
    SETDIJ:  cpu time      0.0790: real time      0.0794
     EDDAV:  cpu time     50.9986: real time     51.5177
       DOS:  cpu time      0.0024: real time      0.0027
    CHARGE:  cpu time      1.5506: real time      1.5649
    MIXING:  cpu time      0.0176: real time      0.0177
    --------------------------------------------
      LOOP:  cpu time     52.9967: real time     53.5336

 eigenvalue-minimisations  :  4216
 total energy-change (2. order) : 0.4081551E-04  (-0.4623310E-04)
 number of electron     384.0001336 magnetization 
 augmentation part       30.5657424 magnetization 

 Broyden mixing:
  rms(total) = 0.25203E-02    rms(broyden)= 0.25176E-02
  rms(prec ) = 0.28443E-02
  weight for this iteration     100.00

 eigenvalues of (default mixing * dielectric matrix)
  average eigenvalue GAMMA=   1.4978
  2.8471  2.4242  1.7759  1.0446  1.0446  0.8946  0.9756  0.9756

 Free energy of the ion-electron system (eV)
  ---------------------------------------------------
  alpha Z        PSCENC =       566.96399789
  Ewald energy   TEWEN  =    -18918.09940529
  -Hartree energ DENC   =     -6004.69488276
  -exchange      EXHF   =         0.00000000
  -V(xc)+E(xc)   XCENC  =       579.30530400
  PAW double counting   =     29924.73568795   -28999.21817990
  entropy T*S    EENTRO =         0.00073966
  eigenvalues    EBANDS =      -201.28820583
  atomic energy  EATOM  =     22461.85434800
  Solvation  Ediel_sol  =         0.00000000
  ---------------------------------------------------
  free energy    TOTEN  =      -590.44059628 eV

  energy without entropy =     -590.44133594  energy(sigma->0) =     -590.44084283


--------------------------------------------------------------------------------------------------------




--------------------------------------- Iteration      1(  14)  ---------------------------------------


    POTLOK:  cpu time      0.3506: real time      0.3533
    SETDIJ:  cpu time      0.0794: real time      0.0798
     EDDAV:  cpu time     51.4742: real time     51.9937
       DOS:  cpu time      0.0024: real time      0.0026
    CHARGE:  cpu time      1.5486: real time      1.5632
    MIXING:  cpu time      0.0184: real time      0.0186
    --------------------------------------------
      LOOP:  cpu time     53.4736: real time     54.0112

 eigenvalue-minimisations  :  4272
 total energy-change (2. order) : 0.3541067E-05  (-0.6632954E-05)
 number of electron     384.0001336 magnetization 
 augmentation part       30.5646826 magnetization 

 Broyden mixing:
  rms(total) = 0.99547E-03    rms(broyden)= 0.99429E-03
  rms(prec ) = 0.10496E-02
  weight for this iteration     100.00

 eigenvalues of (default mixing * dielectric matrix)
  average eigenvalue GAMMA=   1.5331
  2.9653  2.5730  2.2226  0.9607  0.9607  1.0991  1.0691  1.0691  0.8785

 Free energy of the ion-electron system (eV)
  ---------------------------------------------------
  alpha Z        PSCENC =       566.96399789
  Ewald energy   TEWEN  =    -18918.09940529
  -Hartree energ DENC   =     -6004.79873305
  -exchange      EXHF   =         0.00000000
  -V(xc)+E(xc)   XCENC  =       579.30969312
  PAW double counting   =     29921.02720797   -28995.50957873
  entropy T*S    EENTRO =         0.00073914
  eigenvalues    EBANDS =      -201.18886180
  atomic energy  EATOM  =     22461.85434800
  Solvation  Ediel_sol  =         0.00000000
  ---------------------------------------------------
  free energy    TOTEN  =      -590.44059274 eV

  energy without entropy =     -590.44133188  energy(sigma->0) =     -590.44083912


--------------------------------------------------------------------------------------------------------




--------------------------------------- Iteration      1(  15)  ---------------------------------------


    POTLOK:  cpu time      0.3559: real time      0.3587
    SETDIJ:  cpu time      0.0793: real time      0.0797
     EDDAV:  cpu time     50.9083: real time     51.4051
       DOS:  cpu time      0.0029: real time      0.0033
    --------------------------------------------
      LOOP:  cpu time     51.3464: real time     51.8469

 eigenvalue-minimisations  :  4208
 total energy-change (2. order) :-0.4037647E-06  (-0.6280349E-06)
 number of electron     384.0001336 magnetization 
 augmentation part       30.5646826 magnetization 

 Free energy of the ion-electron system (eV)
  ---------------------------------------------------
  alpha Z        PSCENC =       566.96399789
  Ewald energy   TEWEN  =    -18918.09940529
  -Hartree energ DENC   =     -6004.88004546
  -exchange      EXHF   =         0.00000000
  -V(xc)+E(xc)   XCENC  =       579.31410880
  PAW double counting   =     29916.38422217   -28990.86559012
  entropy T*S    EENTRO =         0.00073895
  eigenvalues    EBANDS =      -201.11296807
  atomic energy  EATOM  =     22461.85434800
  Solvation  Ediel_sol  =         0.00000000
  ---------------------------------------------------
  free energy    TOTEN  =      -590.44059314 eV

  energy without entropy =     -590.44133209  energy(sigma->0) =     -590.44083946


--------------------------------------------------------------------------------------------------------




 average (electrostatic) potential at core
  the test charge radii are     1.0406  0.7215
  (the norm of the test charge is              1.0000)
       1 -72.5438       2 -72.5438       3 -72.5438       4 -72.5438       5 -72.5438
       6 -72.5438       7 -72.5438       8 -72.5438       9 -72.5438      10 -72.5438
      11 -72.5438      12 -72.5438      13 -72.5438      14 -72.5438      15 -72.5438
      16 -72.5438      17 -72.5438      18 -72.5438      19 -72.5438      20 -72.5438
      21 -72.5438      22 -72.5438      23 -72.5438      24 -72.5438      25 -72.5438
      26 -72.5438      27 -72.5438      28 -72.5438      29 -72.5438      30 -72.5438
      31 -72.5438      32 -72.5438      33 -67.6933      34 -67.6933      35 -67.6933
      36 -67.6933      37 -67.6933      38 -67.6933      39 -67.6933      40 -67.6933
      41 -67.6933      42 -67.6933      43 -67.6933      44 -67.6933      45 -67.6933
      46 -67.6933      47 -67.6933      48 -67.6933      49 -67.6933      50 -67.6933
      51 -67.6933      52 -67.6933      53 -67.6933      54 -67.6933      55 -67.6933
      56 -67.6933      57 -67.6933      58 -67.6933      59 -67.6933      60 -67.6933
      61 -67.6933      62 -67.6933      63 -67.6933      64 -67.6933      65 -67.5910
      66 -67.5910      67 -67.5910      68 -67.5910      69 -67.5910      70 -67.5910
      71 -67.5910      72 -67.5910      73 -67.5910      74 -67.5910      75 -67.5910
      76 -67.5910      77 -67.5910      78 -67.5910      79 -67.5910      80 -67.5910



 E-fermi :   5.6043     XC(G=0): -11.4246     alpha+bet :-15.7131

 Fermi energy:         5.6043444548

 k-point     1 :       0.1250    0.1250    0.1250
  band No.  band energies     occupation 
      1     -13.0522      2.00000
      2     -12.5175      2.00000
      3     -12.4973      2.00000
      4     -12.2025      2.00000
      5     -12.1823      2.00000
      6     -12.1648      2.00000
      7     -12.0364      2.00000
      8     -11.7794      2.00000
      9     -11.7722      2.00000
     10     -11.7194      2.00000
     11     -11.7141      2.00000
     12     -11.5822      2.00000
     13     -11.5154      2.00000
     14     -11.4630      2.00000
     15     -11.3451      2.00000
     16     -11.2712      2.00000
     17     -11.2657      2.00000
     18     -11.1965      2.00000
     19     -11.1526      2.00000
     20     -11.1342      2.00000
     21     -11.0868      2.00000
     22     -11.0799      2.00000
     23     -11.0473      2.00000
     24     -10.9863      2.00000
     25     -10.9822      2.00000
     26     -10.9818      2.00000
     27     -10.9484      2.00000
     28     -10.8926      2.00000
     29     -10.8628      2.00000
     30     -10.8032      2.00000
     31     -10.7757      2.00000
     32     -10.7585      2.00000
     33     -10.6635      2.00000
     34     -10.6389      2.00000
     35     -10.6353      2.00000
     36     -10.6273      2.00000
     37     -10.5985      2.00000
     38     -10.5984      2.00000
     39     -10.5966      2.00000
     40     -10.5938      2.00000
     41     -10.5354      2.00000
     42     -10.5188      2.00000
     43     -10.5170      2.00000
     44     -10.4932      2.00000
     45     -10.4411      2.00000
     46     -10.3928      2.00000
     47     -10.3355      2.00000
     48     -10.3112      2.00000
     49      -0.3961      2.00000
     50      -0.3659      2.00000
     51      -0.2615      2.00000
     52      -0.2473      2.00000
     53      -0.2148      2.00000
     54      -0.1820      2.00000
     55      -0.0925      2.00000
     56      -0.0818      2.00000
     57       0.0052      2.00000
     58       0.0310      2.00000
     59       0.0316      2.00000
     60       0.0553      2.00000
     61       0.1195      2.00000
     62       0.1871      2.00000
     63       0.2151      2.00000
     64       0.2690      2.00000
     65       0.2807      2.00000
     66       0.4542      2.00000
     67       0.5972      2.00000
     68       0.7067      2.00000
     69       0.7462      2.00000
     70       0.7632      2.00000
     71       0.8185      2.00000
     72       0.8458      2.00000
     73       0.8518      2.00000
     74       0.9178      2.00000
     75       0.9981      2.00000
     76       1.0538      2.00000
     77       1.1423      2.00000
     78       1.2441      2.00000
     79       1.2486      2.00000
     80       1.3650      2.00000
     81       1.3831      2.00000
     82       1.3834      2.00000
     83       1.4119      2.00000
     84       1.4849      2.00000
     85       1.5677      2.00000
     86       1.5790      2.00000
     87       1.5892      2.00000
     88       1.6087      2.00000
     89       1.6241      2.00000
     90       1.6744      2.00000
     91       1.6989      2.00000
     92       1.7237      2.00000
     93       1.7343      2.00000
     94       1.8526      2.00000
     95       1.9411      2.00000
     96       2.0510      2.00000
     97       2.1071      2.00000
     98       2.1247      2.00000
     99       2.2014      2.00000
    100       2.3567      2.00000
    101       2.3596      2.00000
    102       2.4489      2.00000
    103       2.4719      2.00000
    104       2.5159      2.00000
    105       2.6570      2.00000
    106       2.7165      2.00000
    107       2.7313      2.00000
    108       2.7897      2.00000
    109       2.8226      2.00000
    110       2.9454      2.00000
    111       2.9620      2.00000
    112       3.0260      2.00000
    113       3.0297      2.00000
    114       3.0708      2.00000
    115       3.1535      2.00000
    116       3.1715      2.00000
    117       3.1717      2.00000
    118       3.1975      2.00000
    119       3.1990      2.00000
    120       3.3316      2.00000
    121       3.3332      2.00000
    122       3.3654      2.00000
    123       3.3750      2.00000
    124       3.4562      2.00000
    125       3.4899      2.00000
    126       3.5280      2.00000
    127       3.5711      2.00000
    128       3.6142      2.00000
    129       3.6885      2.00000
    130       3.7122      2.00000
    131       3.8466      2.00000
    132       3.8757      2.00000
    133       3.8757      2.00000
    134       3.8868      2.00000
    135       3.9764      2.00000
    136       4.0459      2.00000
    137       4.0477      2.00000
    138       4.0654      2.00000
    139       4.0967      2.00000
    140       4.1284      2.00000
    141       4.1816      2.00000
    142       4.2053      2.00000
    143       4.2581      2.00000
    144       4.2733      2.00000
    145       4.2780      2.00000
    146       4.2922      2.00000
    147       4.2976      2.00000
    148       4.3261      2.00000
    149       4.3810      2.00000
    150       4.4383      2.00000
    151       4.4458      2.00000
    152       4.4519      2.00000
    153       4.4846      2.00000
    154       4.5118      2.00000
    155       4.5205      2.00000
    156       4.5302      2.00000
    157       4.6135      2.00000
    158       4.6305      2.00000
    159       4.6976      2.00000
    160       4.7084      2.00000
    161       4.7115      2.00000
    162       4.7396      2.00000
    163       4.7594      2.00000
    164       4.7692      2.00000
    165       4.8431      2.00000
    166       4.8653      2.00000
    167       4.8664      2.00000
    168       4.9712      2.00000
    169       4.9858      2.00000
    170       4.9877      2.00000
    171       5.0100      2.00000
    172       5.0706      2.00000
    173       5.0792      2.00000
    174       5.0878      2.00000
    175       5.1216      2.00000
    176       5.1902      2.00000
[...]
     0.000000000 10.177966148  0.000000000     0.000000000  0.098251457  0.000000000
     0.000000000  0.000000000  7.233668753     0.000000000  0.000000000  0.138242437

  length of vectors
     9.896714236 10.177966148  7.233668753     0.101043637  0.098251457  0.138242437


 FORCES acting on ions
    electron-ion (+dipol)            ewald-force                    non-local-force                 convergence-correction
 -----------------------------------------------------------------------------------------------
   0.317E+01 -.278E+01 0.156E+02   -.310E+01 0.664E+00 -.148E+02   -.750E-01 0.196E+01 -.643E+00   0.237E-03 -.509E-04 0.215E-03
   0.317E+01 -.278E+01 0.156E+02   -.310E+01 0.664E+00 -.148E+02   -.750E-01 0.196E+01 -.643E+00   0.237E-03 -.473E-04 0.214E-03
   0.317E+01 -.278E+01 0.156E+02   -.310E+01 0.664E+00 -.148E+02   -.750E-01 0.196E+01 -.643E+00   0.235E-03 -.509E-04 0.215E-03
   0.317E+01 -.278E+01 0.156E+02   -.310E+01 0.664E+00 -.148E+02   -.750E-01 0.196E+01 -.643E+00   0.235E-03 -.473E-04 0.214E-03
   0.317E+01 0.278E+01 -.156E+02   -.310E+01 -.664E+00 0.148E+02   -.750E-01 -.196E+01 0.643E+00   0.237E-03 0.491E-04 -.214E-03
   0.317E+01 0.278E+01 -.156E+02   -.310E+01 -.664E+00 0.148E+02   -.750E-01 -.196E+01 0.643E+00   0.237E-03 0.491E-04 -.214E-03
   0.317E+01 0.278E+01 -.156E+02   -.310E+01 -.664E+00 0.148E+02   -.750E-01 -.196E+01 0.643E+00   0.235E-03 0.491E-04 -.214E-03
   0.317E+01 0.278E+01 -.156E+02   -.310E+01 -.664E+00 0.148E+02   -.750E-01 -.196E+01 0.643E+00   0.235E-03 0.491E-04 -.214E-03
   -.317E+01 -.278E+01 -.156E+02   0.310E+01 0.664E+00 0.148E+02   0.750E-01 0.196E+01 0.643E+00   -.235E-03 -.485E-04 -.215E-03
   -.317E+01 -.278E+01 -.156E+02   0.310E+01 0.664E+00 0.148E+02   0.750E-01 0.196E+01 0.643E+00   -.235E-03 -.496E-04 -.215E-03
   -.317E+01 -.278E+01 -.156E+02   0.310E+01 0.664E+00 0.148E+02   0.750E-01 0.196E+01 0.643E+00   -.237E-03 -.485E-04 -.215E-03
   -.317E+01 -.278E+01 -.156E+02   0.310E+01 0.664E+00 0.148E+02   0.750E-01 0.196E+01 0.643E+00   -.237E-03 -.496E-04 -.215E-03
   -.317E+01 0.278E+01 0.156E+02   0.310E+01 -.664E+00 -.148E+02   0.750E-01 -.196E+01 -.643E+00   -.235E-03 0.509E-04 0.214E-03
   -.317E+01 0.278E+01 0.156E+02   0.310E+01 -.664E+00 -.148E+02   0.750E-01 -.196E+01 -.643E+00   -.235E-03 0.472E-04 0.214E-03
   -.317E+01 0.278E+01 0.156E+02   0.310E+01 -.664E+00 -.148E+02   0.750E-01 -.196E+01 -.643E+00   -.237E-03 0.509E-04 0.214E-03
   -.317E+01 0.278E+01 0.156E+02   0.310E+01 -.664E+00 -.148E+02   0.750E-01 -.196E+01 -.643E+00   -.237E-03 0.472E-04 0.214E-03
   -.317E+01 0.278E+01 -.156E+02   0.310E+01 -.664E+00 0.148E+02   0.750E-01 -.196E+01 0.643E+00   -.236E-03 0.509E-04 -.214E-03
   -.317E+01 0.278E+01 -.156E+02   0.310E+01 -.664E+00 0.148E+02   0.750E-01 -.196E+01 0.643E+00   -.236E-03 0.472E-04 -.214E-03
   -.317E+01 0.278E+01 -.156E+02   0.310E+01 -.664E+00 0.148E+02   0.750E-01 -.196E+01 0.643E+00   -.236E-03 0.509E-04 -.214E-03
   -.317E+01 0.278E+01 -.156E+02   0.310E+01 -.664E+00 0.148E+02   0.750E-01 -.196E+01 0.643E+00   -.236E-03 0.472E-04 -.214E-03
   -.317E+01 -.278E+01 0.156E+02   0.310E+01 0.664E+00 -.148E+02   0.750E-01 0.196E+01 -.643E+00   -.236E-03 -.485E-04 0.215E-03
   -.317E+01 -.278E+01 0.156E+02   0.310E+01 0.664E+00 -.148E+02   0.750E-01 0.196E+01 -.643E+00   -.236E-03 -.496E-04 0.215E-03
   -.317E+01 -.278E+01 0.156E+02   0.310E+01 0.664E+00 -.148E+02   0.750E-01 0.196E+01 -.643E+00   -.236E-03 -.485E-04 0.215E-03
   -.317E+01 -.278E+01 0.156E+02   0.310E+01 0.664E+00 -.148E+02   0.750E-01 0.196E+01 -.643E+00   -.236E-03 -.496E-04 0.215E-03
   0.317E+01 0.278E+01 0.156E+02   -.310E+01 -.664E+00 -.148E+02   -.750E-01 -.196E+01 -.643E+00   0.236E-03 0.491E-04 0.214E-03
   0.317E+01 0.278E+01 0.156E+02   -.310E+01 -.664E+00 -.148E+02   -.750E-01 -.196E+01 -.643E+00   0.236E-03 0.491E-04 0.214E-03
   0.317E+01 0.278E+01 0.156E+02   -.310E+01 -.664E+00 -.148E+02   -.750E-01 -.196E+01 -.643E+00   0.236E-03 0.491E-04 0.214E-03
   0.317E+01 0.278E+01 0.156E+02   -.310E+01 -.664E+00 -.148E+02   -.750E-01 -.196E+01 -.643E+00   0.236E-03 0.491E-04 0.214E-03
   0.317E+01 -.278E+01 -.156E+02   -.310E+01 0.664E+00 0.148E+02   -.750E-01 0.196E+01 0.643E+00   0.236E-03 -.509E-04 -.215E-03
   0.317E+01 -.278E+01 -.156E+02   -.310E+01 0.664E+00 0.148E+02   -.750E-01 0.196E+01 0.643E+00   0.236E-03 -.473E-04 -.215E-03
   0.317E+01 -.278E+01 -.156E+02   -.310E+01 0.664E+00 0.148E+02   -.750E-01 0.196E+01 0.643E+00   0.236E-03 -.509E-04 -.215E-03
   0.317E+01 -.278E+01 -.156E+02   -.310E+01 0.664E+00 0.148E+02   -.750E-01 0.196E+01 0.643E+00   0.236E-03 -.473E-04 -.215E-03
   0.640E+01 0.312E+01 -.175E+02   -.514E+01 -.245E+01 0.183E+02   -.131E+01 -.727E+00 -.893E+00   -.997E-04 0.497E-04 -.673E-03
   0.640E+01 0.312E+01 -.175E+02   -.514E+01 -.245E+01 0.183E+02   -.131E+01 -.727E+00 -.893E+00   -.997E-04 0.577E-04 -.674E-03
   0.640E+01 0.312E+01 -.175E+02   -.514E+01 -.245E+01 0.183E+02   -.131E+01 -.727E+00 -.893E+00   -.104E-03 0.498E-04 -.672E-03
   0.640E+01 0.312E+01 -.175E+02   -.514E+01 -.245E+01 0.183E+02   -.131E+01 -.727E+00 -.893E+00   -.103E-03 0.577E-04 -.673E-03
   0.640E+01 -.312E+01 0.175E+02   -.514E+01 0.245E+01 -.183E+02   -.131E+01 0.727E+00 0.893E+00   -.997E-04 -.541E-04 0.675E-03
   0.640E+01 -.312E+01 0.175E+02   -.514E+01 0.245E+01 -.183E+02   -.131E+01 0.727E+00 0.893E+00   -.997E-04 -.533E-04 0.674E-03
   0.640E+01 -.312E+01 0.175E+02   -.514E+01 0.245E+01 -.183E+02   -.131E+01 0.727E+00 0.893E+00   -.104E-03 -.542E-04 0.674E-03
   0.640E+01 -.312E+01 0.175E+02   -.514E+01 0.245E+01 -.183E+02   -.131E+01 0.727E+00 0.893E+00   -.104E-03 -.533E-04 0.674E-03
   -.640E+01 0.312E+01 0.175E+02   0.514E+01 -.245E+01 -.183E+02   0.131E+01 -.727E+00 0.893E+00   0.104E-03 0.555E-04 0.674E-03
   -.640E+01 0.312E+01 0.175E+02   0.514E+01 -.245E+01 -.183E+02   0.131E+01 -.727E+00 0.893E+00   0.104E-03 0.521E-04 0.674E-03
   -.640E+01 0.312E+01 0.175E+02   0.514E+01 -.245E+01 -.183E+02   0.131E+01 -.727E+00 0.893E+00   0.992E-04 0.555E-04 0.674E-03
   -.640E+01 0.312E+01 0.175E+02   0.514E+01 -.245E+01 -.183E+02   0.131E+01 -.727E+00 0.893E+00   0.992E-04 0.521E-04 0.674E-03
   -.640E+01 -.312E+01 -.175E+02   0.514E+01 0.245E+01 0.183E+02   0.131E+01 0.727E+00 -.893E+00   0.104E-03 -.493E-04 -.675E-03
   -.640E+01 -.312E+01 -.175E+02   0.514E+01 0.245E+01 0.183E+02   0.131E+01 0.727E+00 -.893E+00   0.104E-03 -.582E-04 -.676E-03
   -.640E+01 -.312E+01 -.175E+02   0.514E+01 0.245E+01 0.183E+02   0.131E+01 0.727E+00 -.893E+00   0.992E-04 -.493E-04 -.675E-03
   -.640E+01 -.312E+01 -.175E+02   0.514E+01 0.245E+01 0.183E+02   0.131E+01 0.727E+00 -.893E+00   0.992E-04 -.582E-04 -.676E-03
   -.640E+01 -.312E+01 0.175E+02   0.514E+01 0.245E+01 -.183E+02   0.131E+01 0.727E+00 0.893E+00   0.101E-03 -.493E-04 0.674E-03
   -.640E+01 -.312E+01 0.175E+02   0.514E+01 0.245E+01 -.183E+02   0.131E+01 0.727E+00 0.893E+00   0.101E-03 -.582E-04 0.674E-03
   -.640E+01 -.312E+01 0.175E+02   0.514E+01 0.245E+01 -.183E+02   0.131E+01 0.727E+00 0.893E+00   0.103E-03 -.493E-04 0.674E-03
   -.640E+01 -.312E+01 0.175E+02   0.514E+01 0.245E+01 -.183E+02   0.131E+01 0.727E+00 0.893E+00   0.103E-03 -.582E-04 0.675E-03
   -.640E+01 0.312E+01 -.175E+02   0.514E+01 -.245E+01 0.183E+02   0.131E+01 -.727E+00 -.893E+00   0.101E-03 0.555E-04 -.673E-03
   -.640E+01 0.312E+01 -.175E+02   0.514E+01 -.245E+01 0.183E+02   0.131E+01 -.727E+00 -.893E+00   0.101E-03 0.521E-04 -.673E-03
   -.640E+01 0.312E+01 -.175E+02   0.514E+01 -.245E+01 0.183E+02   0.131E+01 -.727E+00 -.893E+00   0.103E-03 0.555E-04 -.673E-03
   -.640E+01 0.312E+01 -.175E+02   0.514E+01 -.245E+01 0.183E+02   0.131E+01 -.727E+00 -.893E+00   0.103E-03 0.521E-04 -.673E-03
   0.640E+01 -.312E+01 -.175E+02   -.514E+01 0.245E+01 0.183E+02   -.131E+01 0.727E+00 -.893E+00   -.100E-03 -.541E-04 -.676E-03
   0.640E+01 -.312E+01 -.175E+02   -.514E+01 0.245E+01 0.183E+02   -.131E+01 0.727E+00 -.893E+00   -.100E-03 -.533E-04 -.675E-03
   0.640E+01 -.312E+01 -.175E+02   -.514E+01 0.245E+01 0.183E+02   -.131E+01 0.727E+00 -.893E+00   -.103E-03 -.542E-04 -.676E-03
   0.640E+01 -.312E+01 -.175E+02   -.514E+01 0.245E+01 0.183E+02   -.131E+01 0.727E+00 -.893E+00   -.103E-03 -.533E-04 -.675E-03
   0.640E+01 0.312E+01 0.175E+02   -.514E+01 -.245E+01 -.183E+02   -.131E+01 -.727E+00 0.893E+00   -.100E-03 0.497E-04 0.674E-03
   0.640E+01 0.312E+01 0.175E+02   -.514E+01 -.245E+01 -.183E+02   -.131E+01 -.727E+00 0.893E+00   -.100E-03 0.577E-04 0.674E-03
   0.640E+01 0.312E+01 0.175E+02   -.514E+01 -.245E+01 -.183E+02   -.131E+01 -.727E+00 0.893E+00   -.103E-03 0.498E-04 0.674E-03
   0.640E+01 0.312E+01 0.175E+02   -.514E+01 -.245E+01 -.183E+02   -.131E+01 -.727E+00 0.893E+00   -.103E-03 0.577E-04 0.674E-03
   -.190E+02 -.485E-04 -.306E-04   0.197E+02 0.109E-04 0.373E-04   -.856E+00 -.183E-19 0.154E-18   -.228E-03 -.257E-05 -.158E-05
   -.190E+02 -.465E-04 -.269E-04   0.197E+02 -.391E-05 0.444E-05   -.856E+00 -.241E-18 -.155E-19   -.228E-03 0.257E-05 -.770E-06
   -.190E+02 -.485E-04 -.306E-04   0.197E+02 0.109E-04 0.373E-04   -.856E+00 -.705E-19 -.192E-19   -.231E-03 -.257E-05 -.158E-05
   -.190E+02 -.465E-04 -.269E-04   0.197E+02 -.391E-05 0.444E-05   -.856E+00 -.467E-18 -.631E-19   -.231E-03 0.257E-05 -.770E-06
   0.190E+02 -.478E-04 -.489E-04   -.197E+02 -.132E-05 -.173E-04   0.856E+00 0.192E-18 -.383E-19   0.231E-03 0.354E-05 0.826E-06
   0.190E+02 -.493E-04 -.451E-04   -.197E+02 0.144E-04 -.396E-04   0.856E+00 0.440E-18 0.337E-19   0.231E-03 -.355E-05 0.155E-05
   0.190E+02 -.478E-04 -.489E-04   -.197E+02 -.132E-05 -.173E-04   0.856E+00 0.136E-18 0.955E-19   0.228E-03 0.354E-05 0.826E-06
   0.190E+02 -.493E-04 -.451E-04   -.197E+02 0.144E-04 -.396E-04   0.856E+00 0.268E-18 0.117E-18   0.228E-03 -.355E-05 0.155E-05
   0.190E+02 -.468E-04 -.572E-04   -.197E+02 -.364E-05 0.109E-04   0.856E+00 0.327E-18 -.928E-19   0.229E-03 0.354E-05 -.811E-06
   0.190E+02 -.483E-04 -.610E-04   -.197E+02 0.121E-04 0.332E-04   0.856E+00 0.369E-18 -.592E-19   0.229E-03 -.355E-05 -.154E-05
   0.190E+02 -.468E-04 -.572E-04   -.197E+02 -.364E-05 0.109E-04   0.856E+00 0.166E-18 -.424E-19   0.231E-03 0.354E-05 -.811E-06
   0.190E+02 -.483E-04 -.610E-04   -.197E+02 0.121E-04 0.332E-04   0.856E+00 -.158E-19 0.544E-19   0.231E-03 -.355E-05 -.154E-05
   -.190E+02 -.499E-04 -.149E-04   0.197E+02 0.132E-04 -.437E-04   -.856E+00 -.380E-18 -.570E-19   -.228E-03 -.257E-05 0.159E-05
   -.190E+02 -.479E-04 -.185E-04   0.197E+02 -.160E-05 -.108E-04   -.856E+00 -.922E-19 -.918E-20   -.228E-03 0.257E-05 0.785E-06
   -.190E+02 -.499E-04 -.149E-04   0.197E+02 0.132E-04 -.437E-04   -.856E+00 -.258E-18 0.164E-20   -.231E-03 -.257E-05 0.159E-05
   -.190E+02 -.479E-04 -.185E-04   0.197E+02 -.160E-05 -.108E-04   -.856E+00 -.286E-18 0.477E-19   -.231E-03 0.257E-05 0.785E-06
 -----------------------------------------------------------------------------------------------
   0.519E-02 -.250E-02 -.808E-03   0.206E-12 -.389E-13 0.609E-13   0.222E-15 0.666E-15 -.333E-15   0.169E-06 -.408E-07 0.568E-10


 POSITION                                       TOTAL-FORCE (eV/Angst)
 -----------------------------------------------------------------------------------
      1.24848      0.15977      2.82105        -0.003802     -0.158236      0.120731
      1.24848      5.24875      2.82105        -0.003802     -0.158236      0.120731
      6.19683      0.15977      2.82105        -0.003802     -0.158236      0.120731
      6.19683      5.24875      2.82105        -0.003802     -0.158236      0.120731
      1.24848      2.38473      4.41262        -0.003802      0.158236     -0.120731
      1.24848      7.47371      4.41262        -0.003802      0.158236     -0.120731
      6.19683      2.38473      4.41262        -0.003802      0.158236     -0.120731
      6.19683      7.47371      4.41262        -0.003802      0.158236     -0.120731
      1.22570      2.70426      0.79579         0.003802     -0.158236     -0.120731
      1.22570      7.79324      0.79579         0.003802     -0.158236     -0.120731
      6.17406      2.70426      0.79579         0.003802     -0.158236     -0.120731
      6.17406      7.79324      0.79579         0.003802     -0.158236     -0.120731
      1.22570      4.92922      6.43788         0.003802      0.158236      0.120731
      1.22570     10.01820      6.43788         0.003802      0.158236      0.120731
      6.17406      4.92922      6.43788         0.003802      0.158236      0.120731
      6.17406     10.01820      6.43788         0.003802      0.158236      0.120731
      3.69988      4.92922      4.41262         0.003802      0.158236     -0.120731
      3.69988     10.01820      4.41262         0.003802      0.158236     -0.120731
      8.64824      4.92922      4.41262         0.003802      0.158236     -0.120731
      8.64824     10.01820      4.41262         0.003802      0.158236     -0.120731
      3.69988      2.70426      2.82105         0.003802     -0.158236      0.120731
      3.69988      7.79324      2.82105         0.003802     -0.158236      0.120731
      8.64824      2.70426      2.82105         0.003802     -0.158236      0.120731
      8.64824      7.79324      2.82105         0.003802     -0.158236      0.120731
      3.72265      2.38473      6.43788        -0.003802      0.158236      0.120731
      3.72265      7.47371      6.43788        -0.003802      0.158236      0.120731
      8.67101      2.38473      6.43788        -0.003802      0.158236      0.120731
      8.67101      7.47371      6.43788        -0.003802      0.158236      0.120731
      3.72265      0.15977      0.79579        -0.003802     -0.158236     -0.120731
      3.72265      5.24875      0.79579        -0.003802     -0.158236     -0.120731
      8.67101      0.15977      0.79579        -0.003802     -0.158236     -0.120731
      8.67101      5.24875      0.79579        -0.003802     -0.158236     -0.120731
      0.52983      0.52107      4.73189        -0.052941     -0.050876     -0.073975
      0.52983      5.61005      4.73189        -0.052941     -0.050876     -0.073975
      5.47819      0.52107      4.73189        -0.052941     -0.050876     -0.073975
      5.47819      5.61005      4.73189        -0.052941     -0.050876     -0.073975
      0.52983      2.02343      2.50177        -0.052941      0.050876      0.073975
      0.52983      7.11241      2.50177        -0.052941      0.050876      0.073975
      5.47819      2.02343      2.50177        -0.052941      0.050876      0.073975
      5.47819      7.11241      2.50177        -0.052941      0.050876      0.073975
      1.94435      3.06556      6.11861         0.052941     -0.050876      0.073975
      1.94435      8.15454      6.11861         0.052941     -0.050876      0.073975
      6.89270      3.06556      6.11861         0.052941     -0.050876      0.073975
      6.89270      8.15454      6.11861         0.052941     -0.050876      0.073975
      1.94435      4.56792      1.11506         0.052941      0.050876     -0.073975
      1.94435      9.65690      1.11506         0.052941      0.050876     -0.073975
      6.89270      4.56792      1.11506         0.052941      0.050876     -0.073975
      6.89270      9.65690      1.11506         0.052941      0.050876     -0.073975
      4.41852      4.56792      2.50177         0.052941      0.050876      0.073975
      4.41852      9.65690      2.50177         0.052941      0.050876      0.073975
      9.36688      4.56792      2.50177         0.052941      0.050876      0.073975
      9.36688      9.65690      2.50177         0.052941      0.050876      0.073975
      4.41852      3.06556      4.73189         0.052941     -0.050876     -0.073975
      4.41852      8.15454      4.73189         0.052941     -0.050876     -0.073975
      9.36688      3.06556      4.73189         0.052941     -0.050876     -0.073975
      9.36688      8.15454      4.73189         0.052941     -0.050876     -0.073975
      3.00401      2.02343      1.11506        -0.052941      0.050876     -0.073975
      3.00401      7.11241      1.11506        -0.052941      0.050876     -0.073975
      7.95237      2.02343      1.11506        -0.052941      0.050876     -0.073975
      7.95237      7.11241      1.11506        -0.052941      0.050876     -0.073975
      3.00401      0.52107      6.11861        -0.052941     -0.050876      0.073975
      3.00401      5.61005      6.11861        -0.052941     -0.050876      0.073975
      7.95237      0.52107      6.11861        -0.052941     -0.050876      0.073975
      7.95237      5.61005      6.11861        -0.052941     -0.050876      0.073975
      0.24835      1.27225      0.00000        -0.083054     -0.000000     -0.000000
      0.24835      6.36123      0.00000        -0.083054     -0.000000     -0.000000
      5.19671      1.27225      0.00000        -0.083054     -0.000000     -0.000000
      5.19671      6.36123      0.00000        -0.083054     -0.000000     -0.000000
      2.22583      3.81674      3.61683         0.083054     -0.000000     -0.000000
      2.22583      8.90572      3.61683         0.083054     -0.000000     -0.000000
      7.17419      3.81674      3.61683         0.083054     -0.000000     -0.000000
      7.17419      8.90572      3.61683         0.083054     -0.000000     -0.000000
      4.70001      3.81674      0.00000         0.083054     -0.000000     -0.000000
      4.70001      8.90572      0.00000         0.083054     -0.000000     -0.000000
      9.64837      3.81674      0.00000         0.083054     -0.000000     -0.000000
      9.64837      8.90572      0.00000         0.083054     -0.000000     -0.000000
      2.72253      1.27225      3.61683        -0.083054     -0.000000     -0.000000
      2.72253      6.36123      3.61683        -0.083054     -0.000000     -0.000000
      7.67088      1.27225      3.61683        -0.083054     -0.000000     -0.000000
      7.67088      6.36123      3.61683        -0.083054     -0.000000     -0.000000
 -----------------------------------------------------------------------------------
    total drift:                                0.005192     -0.002501     -0.000808


--------------------------------------------------------------------------------------------------------



  FREE ENERGIE OF THE ION-ELECTRON SYSTEM (eV)
  ---------------------------------------------------
  free  energy   TOTEN  =      -590.44059314 eV

  energy  without entropy=     -590.44133209  energy(sigma->0) =     -590.44083946



--------------------------------------------------------------------------------------------------------


    POTLOK:  cpu time      0.4073: real time      0.4466


--------------------------------------------------------------------------------------------------------


 writing wavefunctions
     LOOP+:  cpu time    841.1811: real time    849.8311
    4ORBIT:  cpu time      0.0000: real time      0.0000

 total amount of memory used by VASP MPI-rank0   520313. kBytes
=======================================================================

   base      :      30000. kBytes
   nonlr-proj:       8123. kBytes
   fftplans  :      24184. kBytes
   grid      :      42969. kBytes
   one-center:        245. kBytes
   wavefun   :     414792. kBytes

  
  
 General timing and accounting informations for this job:
 ========================================================
  
                  Total CPU time used (sec):      850.444
                            User time (sec):      847.567
                          System time (sec):        2.877
                         Elapsed time (sec):      948.060
  
                   Maximum memory used (kb):      702248.
                   Average memory used (kb):          N/A
  
                          Minor page faults:       336153
                          Major page faults:            7
                 Voluntary context switches:          743
