 vasp.6.3.0 20Jan22 (build Jul  1 2024 12:21:46) complex                         
 executed on             LinuxGNU date 2024.10.21  12:40:08
 running    1 mpi-ranks, with    1 threads/rank
 distrk:  each k-point on    1 cores,    1 groups
 distr:  one band on NCORE=   1 cores,    1 groups


--------------------------------------------------------------------------------------------------------


 INCAR:
   SYSTEM = Alumina_orthorombic_cell_under_strain
   ISTART = 0
   ICHARG = 2
   ENCUT = 400
   ALGO = Normal
   PREC = Normal
   ISPIN = 1
   LWAVE = T             (Write WAVECAR)
   LCHARG = T             (Write CHGCAR)
   NPAR = 1
   EDIFF = 1E-6
   NSW = 0
   NELM = 100
   POTIM = 0.5
   IBRION = -1
   ISMEAR = 1
   SIGMA = 0.026
   EDIFFG = -0.001
   ISIF = 2
   LREAL = Auto

 POTCAR:    PAW_PBE Al 04Jan2001                  
 POTCAR:    PAW_PBE O 08Apr2002                   
 POTCAR:    PAW_PBE Al 04Jan2001                  
   SHA256 =  17880443556af62b473fe41b62a467bd001ad55d2cabe504a3f22e34d4e9db96 Al/POTCAR             
   COPYR  = (c) Copyright 04Jan2001 Georg Kresse                                                    
   COPYR  = This file is part of the software VASP. Any use, copying, and all other rights are regul
   COPYR  = If you do not have a valid VASP license, you may not use, copy or distribute this file. 
   VRHFIN =Al: s2p1                                                                                 
   LEXCH  = PE                                                                                      
   EATOM  =    53.5387 eV,    3.9350 Ry                                                             
                                                                                                    
   TITEL  = PAW_PBE Al 04Jan2001                                                                    
   LULTRA =        F    use ultrasoft PP ?                                                          
   IUNSCR =        1    unscreen: 0-lin 1-nonlin 2-no                                               
   RPACOR =    1.500    partial core radius                                                         
   POMASS =   26.981; ZVAL   =    3.000    mass and valenz                                          
   RCORE  =    1.900    outmost cutoff radius                                                       
   RWIGS  =    2.650; RWIGS  =    1.402    wigner-seitz radius (au A)                               
   ENMAX  =  240.300; ENMIN  =  180.225 eV                                                          
   ICORE  =        2    local potential                                                             
   LCOR   =        T    correct aug charges                                                         
   LPAW   =        T    paw PP                                                                      
   EAUG   =  291.052                                                                                
   DEXC   =    0.000                                                                                
   RMAX   =    1.939    core radius for proj-oper                                                   
   RAUG   =    1.300    factor for augmentation sphere                                              
   RDEP   =    1.966    radius for radial grids                                                     
   RDEPT  =    1.856    core radius for aug-charge                                                  
                                                                                                    
   Atomic configuration                                                                             
    6 entries                                                                                       
     n  l   j            E        occ.                                                              
     1  0  0.50     -1511.1048   2.0000                                                             
     2  0  0.50      -108.1629   2.0000                                                             
     2  1  1.50       -69.6402   6.0000                                                             
     3  0  0.50        -7.7528   2.0000                                                             
     3  1  1.50        -2.7121   1.0000                                                             
     3  2  2.50        -2.7212   0.0000                                                             
   Description                                                                                      
     l       E           TYP  RCUT    TYP  RCUT                                                     
     0     -7.7528455     23  1.900                                                                 
     0     -3.3096929     23  1.900                                                                 
     1     -2.7120682     23  1.900                                                                 
     1     13.6058260     23  1.900                                                                 
     2     -2.7211652      7  1.900                                                                 
  local pseudopotential read in
  partial core-charges read in
  partial kinetic energy density read in
  atomic valenz-charges read in
  non local Contribution for L=           0  read in
    real space projection operators read in
  non local Contribution for L=           0  read in
    real space projection operators read in
  non local Contribution for L=           1  read in
    real space projection operators read in
  non local Contribution for L=           1  read in
    real space projection operators read in
    PAW grid and wavefunctions read in

   number of l-projection  operators is LMAX  =           4
   number of lm-projection operators is LMMAX =           8

 POTCAR:    PAW_PBE O 08Apr2002                   
   SHA256 =  818f92134a0a090dccd8ba1447fa70422a3b330e708bb4f08108d8ae51209ddf O/POTCAR              
   COPYR  = (c) Copyright 08Apr2002 Georg Kresse                                                    
   COPYR  = This file is part of the software VASP. Any use, copying, and all other rights are regul
   COPYR  = If you do not have a valid VASP license, you may not use, copy or distribute this file. 
   VRHFIN =O: s2p4                                                                                  
   LEXCH  = PE                                                                                      
   EATOM  =   432.3788 eV,   31.7789 Ry                                                             
                                                                                                    
   TITEL  = PAW_PBE O 08Apr2002                                                                     
   LULTRA =        F    use ultrasoft PP ?                                                          
   IUNSCR =        1    unscreen: 0-lin 1-nonlin 2-no                                               
   RPACOR =    1.200    partial core radius                                                         
   POMASS =   16.000; ZVAL   =    6.000    mass and valenz                                          
   RCORE  =    1.520    outmost cutoff radius                                                       
   RWIGS  =    1.550; RWIGS  =    0.820    wigner-seitz radius (au A)                               
   ENMAX  =  400.000; ENMIN  =  300.000 eV                                                          
   ICORE  =        2    local potential                                                             
   LCOR   =        T    correct aug charges                                                         
   LPAW   =        T    paw PP                                                                      
   EAUG   =  605.392                                                                                
   DEXC   =    0.000                                                                                
   RMAX   =    1.553    core radius for proj-oper                                                   
   RAUG   =    1.300    factor for augmentation sphere                                              
   RDEP   =    1.550    radius for radial grids                                                     
   RDEPT  =    1.329    core radius for aug-charge                                                  
                                                                                                    
   Atomic configuration                                                                             
    4 entries                                                                                       
     n  l   j            E        occ.                                                              
     1  0  0.50      -514.6923   2.0000                                                             
     2  0  0.50       -23.9615   2.0000                                                             
     2  1  0.50        -9.0305   4.0000                                                             
     3  2  1.50        -9.5241   0.0000                                                             
   Description                                                                                      
     l       E           TYP  RCUT    TYP  RCUT                                                     
     0    -23.9615318     23  1.200                                                                 
     0     -9.5240782     23  1.200                                                                 
     1     -9.0304911     23  1.520                                                                 
     1      8.1634956     23  1.520                                                                 
     2     -9.5240782      7  1.500                                                                 
  local pseudopotential read in
  partial core-charges read in
  partial kinetic energy density read in
  kinetic energy density of atom read in
  atomic valenz-charges read in
  non local Contribution for L=           0  read in
    real space projection operators read in
  non local Contribution for L=           0  read in
    real space projection operators read in
  non local Contribution for L=           1  read in
    real space projection operators read in
  non local Contribution for L=           1  read in
    real space projection operators read in
    PAW grid and wavefunctions read in

   number of l-projection  operators is LMAX  =           4
   number of lm-projection operators is LMMAX =           8

 Optimization of the real space projectors (new method)

 maximal supplied QI-value         = 19.84
 optimisation between [QCUT,QGAM] = [ 10.12, 20.44] = [ 28.68,116.96] Ry 
 Optimized for a Real-space Cutoff    1.23 Angstroem

   l    n(q)    QCUT    max X(q) W(low)/X(q) W(high)/X(q)  e(spline) 
   0      7    10.119   176.870    0.49E-04    0.18E-03    0.39E-07
   0      7    10.119   105.762    0.46E-04    0.18E-03    0.38E-07
   1      7    10.119    55.370    0.30E-03    0.37E-03    0.12E-06
   1      7    10.119    20.208    0.27E-03    0.35E-03    0.11E-06
 Optimization of the real space projectors (new method)

 maximal supplied QI-value         = 24.76
 optimisation between [QCUT,QGAM] = [ 10.15, 20.30] = [ 28.85,115.39] Ry 
 Optimized for a Real-space Cutoff    1.38 Angstroem

   l    n(q)    QCUT    max X(q) W(low)/X(q) W(high)/X(q)  e(spline) 
   0      8    10.150    20.381    0.22E-03    0.32E-03    0.29E-06
   0      8    10.150    15.268    0.23E-03    0.35E-03    0.30E-06
   1      8    10.150     5.964    0.46E-03    0.53E-03    0.21E-06
   1      8    10.150     5.382    0.38E-03    0.45E-03    0.19E-06
  PAW_PBE Al 04Jan2001                  :
 energy of atom  1       EATOM=  -53.5387
 kinetic energy error for atom=    0.0005 (will be added to EATOM!!)
  PAW_PBE O 08Apr2002                   :
 energy of atom  2       EATOM= -432.3788
 kinetic energy error for atom=    0.1156 (will be added to EATOM!!)


 POSCAR:    Al  O
  positions in direct lattice
  No initial velocities read in
 exchange correlation table for  LEXCH =        8
   RHO(1)=    0.500       N(1)  =     2000
   RHO(2)=  100.500       N(2)  =     4000



--------------------------------------------------------------------------------------------------------


 ion  position               nearest neighbor table
   1  0.126  0.016  0.390-  70 1.78  52 1.80  46 1.83  77 1.87  37 1.89  33 1.93   5 2.55  18 2.74
                            20 2.78  31 2.98  29 2.98  10 3.03   9 3.03   6 3.05  22 3.29  21 3.29
   2  0.126  0.516  0.390-  69 1.78  51 1.80  45 1.83  78 1.87  38 1.89  34 1.93   6 2.55  17 2.74
                            19 2.78  32 2.98  30 2.98   9 3.03  10 3.03   5 3.05  21 3.29  22 3.29
   3  0.626  0.016  0.390-  72 1.78  50 1.80  48 1.83  79 1.87  39 1.89  35 1.93   7 2.55  20 2.74
                            18 2.78  29 2.98  31 2.98  12 3.03  11 3.03   8 3.05  24 3.29  23 3.29
   4  0.626  0.516  0.390-  71 1.78  49 1.80  47 1.83  80 1.87  40 1.89  36 1.93   8 2.55  19 2.74
                            17 2.78  30 2.98  32 2.98  11 3.03  12 3.03   7 3.05  23 3.29  24 3.29
   5  0.126  0.234  0.610-  69 1.78  55 1.80  41 1.83  77 1.87  33 1.89  37 1.93   1 2.55  21 2.74
                            23 2.78  27 2.98  25 2.98  13 3.03  14 3.03   2 3.05  17 3.29  18 3.29
   6  0.126  0.734  0.610-  70 1.78  56 1.80  42 1.83  78 1.87  34 1.89  38 1.93   2 2.55  22 2.74
                            24 2.78  28 2.98  26 2.98  14 3.03  13 3.03   1 3.05  18 3.29  17 3.29
   7  0.626  0.234  0.610-  71 1.78  53 1.80  43 1.83  79 1.87  35 1.89  39 1.93   3 2.55  23 2.74
                            21 2.78  25 2.98  27 2.98  15 3.03  16 3.03   4 3.05  19 3.29  20 3.29
   8  0.626  0.734  0.610-  72 1.78  54 1.80  44 1.83  80 1.87  36 1.89  40 1.93   4 2.55  24 2.74
                            22 2.78  26 2.98  28 2.98  16 3.03  15 3.03   3 3.05  20 3.29  19 3.29
   9  0.124  0.266  0.110-  65 1.78  57 1.80  37 1.83  75 1.87  45 1.89  41 1.93  13 2.55  27 2.74
                            25 2.78  21 2.98  23 2.98   2 3.03   1 3.03  14 3.05  32 3.29  31 3.29
  10  0.124  0.766  0.110-  66 1.78  58 1.80  38 1.83  76 1.87  46 1.89  42 1.93  14 2.55  28 2.74
                            26 2.78  22 2.98  24 2.98   1 3.03   2 3.03  13 3.05  31 3.29  32 3.29
  11  0.624  0.266  0.110-  67 1.78  59 1.80  39 1.83  73 1.87  47 1.89  43 1.93  15 2.55  25 2.74
                            27 2.78  23 2.98  21 2.98   4 3.03   3 3.03  16 3.05  30 3.29  29 3.29
  12  0.624  0.766  0.110-  68 1.78  60 1.80  40 1.83  74 1.87  48 1.89  44 1.93  16 2.55  26 2.74
                            28 2.78  24 2.98  22 2.98   3 3.03   4 3.03  15 3.05  29 3.29  30 3.29
  13  0.124  0.484  0.890-  66 1.78  62 1.80  34 1.83  75 1.87  41 1.89  45 1.93   9 2.55  32 2.74
                            30 2.78  17 2.98  19 2.98   5 3.03   6 3.03  10 3.05  27 3.29  28 3.29
  14  0.124  0.984  0.890-  65 1.78  61 1.80  33 1.83  76 1.87  42 1.89  46 1.93  10 2.55  31 2.74
                            29 2.78  18 2.98  20 2.98   6 3.03   5 3.03   9 3.05  28 3.29  27 3.29
  15  0.624  0.484  0.890-  68 1.78  64 1.80  36 1.83  73 1.87  43 1.89  47 1.93  11 2.55  30 2.74
                            32 2.78  19 2.98  17 2.98   7 3.03   8 3.03  12 3.05  25 3.29  26 3.29
  16  0.624  0.984  0.890-  67 1.78  63 1.80  35 1.83  74 1.87  44 1.89  48 1.93  12 2.55  29 2.74
                            31 2.78  20 2.98  18 2.98   8 3.03   7 3.03  11 3.05  26 3.29  25 3.29
  17  0.374  0.484  0.610-  78 1.78  36 1.80  62 1.83  69 1.87  53 1.89  49 1.93  21 2.55   2 2.74
                             4 2.78  13 2.98  15 2.98  25 3.03  26 3.03  22 3.05   5 3.29   6 3.29
  18  0.374  0.984  0.610-  77 1.78  35 1.80  61 1.83  70 1.87  54 1.89  50 1.93  22 2.55   1 2.74
                             3 2.78  14 2.98  16 2.98  26 3.03  25 3.03  21 3.05   6 3.29   5 3.29
  19  0.874  0.484  0.610-  80 1.78  34 1.80  64 1.83  71 1.87  55 1.89  51 1.93  23 2.55   4 2.74
                             2 2.78  15 2.98  13 2.98  27 3.03  28 3.03  24 3.05   7 3.29   8 3.29
  20  0.874  0.984  0.610-  79 1.78  33 1.80  63 1.83  72 1.87  56 1.89  52 1.93  24 2.55   3 2.74
                             1 2.78  16 2.98  14 2.98  28 3.03  27 3.03  23 3.05   8 3.29   7 3.29
  21  0.374  0.266  0.390-  77 1.78  39 1.80  57 1.83  69 1.87  49 1.89  53 1.93  17 2.55   5 2.74
                             7 2.78   9 2.98  11 2.98  30 3.03  29 3.03  18 3.05   2 3.29   1 3.29
  22  0.374  0.766  0.390-  78 1.78  40 1.80  58 1.83  70 1.87  50 1.89  54 1.93  18 2.55   6 2.74
                             8 2.78  10 2.98  12 2.98  29 3.03  30 3.03  17 3.05   1 3.29   2 3.29
  23  0.874  0.266  0.390-  79 1.78  37 1.80  59 1.83  71 1.87  51 1.89  55 1.93  19 2.55   7 2.74
                             5 2.78  11 2.98   9 2.98  32 3.03  31 3.03  20 3.05   4 3.29   3 3.29
  24  0.874  0.766  0.390-  80 1.78  38 1.80  60 1.83  72 1.87  52 1.89  56 1.93  20 2.55   8 2.74
                             6 2.78  12 2.98  10 2.98  31 3.03  32 3.03  19 3.05   3 3.29   4 3.29
  25  0.376  0.234  0.890-  73 1.78  41 1.80  53 1.83  67 1.87  61 1.89  57 1.93  29 2.55  11 2.74
                             9 2.78   7 2.98   5 2.98  17 3.03  18 3.03  30 3.05  15 3.29  16 3.29
  26  0.376  0.734  0.890-  74 1.78  42 1.80  54 1.83  68 1.87  62 1.89  58 1.93  30 2.55  12 2.74
                            10 2.78   8 2.98   6 2.98  18 3.03  17 3.03  29 3.05  16 3.29  15 3.29
  27  0.876  0.234  0.890-  75 1.78  43 1.80  55 1.83  65 1.87  63 1.89  59 1.93  31 2.55   9 2.74
                            11 2.78   5 2.98   7 2.98  19 3.03  20 3.03  32 3.05  13 3.29  14 3.29
  28  0.876  0.734  0.890-  76 1.78  44 1.80  56 1.83  66 1.87  64 1.89  60 1.93  32 2.55  10 2.74
                            12 2.78   6 2.98   8 2.98  20 3.03  19 3.03  31 3.05  14 3.29  13 3.29
  29  0.376  0.016  0.110-  74 1.78  46 1.80  50 1.83  67 1.87  57 1.89  61 1.93  25 2.55  16 2.74
                            14 2.78   3 2.98   1 2.98  22 3.03  21 3.03  26 3.05  12 3.29  11 3.29
  30  0.376  0.516  0.110-  73 1.78  45 1.80  49 1.83  68 1.87  58 1.89  62 1.93  26 2.55  15 2.74
                            13 2.78   4 2.98   2 2.98  22 3.03  21 3.03  25 3.05  11 3.29  12 3.29
  31  0.876  0.016  0.110-  76 1.78  48 1.80  52 1.83  65 1.87  59 1.89  63 1.93  27 2.55  14 2.74
                            16 2.78   1 2.98   3 2.98  24 3.03  23 3.03  28 3.05  10 3.29   9 3.29
  32  0.876  0.516  0.110-  75 1.78  47 1.80  51 1.83  66 1.87  60 1.89  64 1.93  28 2.55  13 2.74
                            15 2.78   2 2.98   4 2.98  24 3.03  23 3.03  27 3.05   9 3.29  10 3.29
  33  0.054  0.051  0.654-  20 1.80  14 1.83   5 1.89   1 1.93
  34  0.054  0.551  0.654-  19 1.80  13 1.83   6 1.89   2 1.93
  35  0.554  0.051  0.654-  18 1.80  16 1.83   7 1.89   3 1.93
  36  0.554  0.551  0.654-  17 1.80  15 1.83   8 1.89   4 1.93
  37  0.054  0.199  0.346-  23 1.80   9 1.83   1 1.89   5 1.93
  38  0.054  0.699  0.346-  24 1.80  10 1.83   2 1.89   6 1.93
  39  0.554  0.199  0.346-  21 1.80  11 1.83   3 1.89   7 1.93
  40  0.554  0.699  0.346-  22 1.80  12 1.83   4 1.89   8 1.93
  41  0.196  0.301  0.846-  25 1.80   5 1.83  13 1.89   9 1.93
  42  0.196  0.801  0.846-  26 1.80   6 1.83  14 1.89  10 1.93
  43  0.696  0.301  0.846-  27 1.80   7 1.83  15 1.89  11 1.93
  44  0.696  0.801  0.846-  28 1.80   8 1.83  16 1.89  12 1.93
  45  0.196  0.449  0.154-  30 1.80   2 1.83   9 1.89  13 1.93
  46  0.196  0.949  0.154-  29 1.80   1 1.83  10 1.89  14 1.93
  47  0.696  0.449  0.154-  32 1.80   4 1.83  11 1.89  15 1.93
  48  0.696  0.949  0.154-  31 1.80   3 1.83  12 1.89  16 1.93
  49  0.446  0.449  0.346-   4 1.80  30 1.83  21 1.89  17 1.93
  50  0.446  0.949  0.346-   3 1.80  29 1.83  22 1.89  18 1.93
  51  0.946  0.449  0.346-   2 1.80  32 1.83  23 1.89  19 1.93
  52  0.946  0.949  0.346-   1 1.80  31 1.83  24 1.89  20 1.93
  53  0.446  0.301  0.654-   7 1.80  25 1.83  17 1.89  21 1.93
  54  0.446  0.801  0.654-   8 1.80  26 1.83  18 1.89  22 1.93
  55  0.946  0.301  0.654-   5 1.80  27 1.83  19 1.89  23 1.93
  56  0.946  0.801  0.654-   6 1.80  28 1.83  20 1.89  24 1.93
  57  0.304  0.199  0.154-   9 1.80  21 1.83  29 1.89  25 1.93
  58  0.304  0.699  0.154-  10 1.80  22 1.83  30 1.89  26 1.93
  59  0.804  0.199  0.154-  11 1.80  23 1.83  31 1.89  27 1.93
  60  0.804  0.699  0.154-  12 1.80  24 1.83  32 1.89  28 1.93
  61  0.304  0.051  0.846-  14 1.80  18 1.83  25 1.89  29 1.93
  62  0.304  0.551  0.846-  13 1.80  17 1.83  26 1.89  30 1.93
  63  0.804  0.051  0.846-  16 1.80  20 1.83  27 1.89  31 1.93
  64  0.804  0.551  0.846-  15 1.80  19 1.83  28 1.89  32 1.93
  65  0.025  0.125  0.000-  14 1.78   9 1.78  27 1.87  31 1.87
  66  0.025  0.625  0.000-  13 1.78  10 1.78  28 1.87  32 1.87
  67  0.525  0.125  0.000-  16 1.78  11 1.78  25 1.87  29 1.87
  68  0.525  0.625  0.000-  15 1.78  12 1.78  26 1.87  30 1.87
  69  0.225  0.375  0.500-   5 1.78   2 1.78  17 1.87  21 1.87
  70  0.225  0.875  0.500-   6 1.78   1 1.78  18 1.87  22 1.87
  71  0.725  0.375  0.500-   7 1.78   4 1.78  19 1.87  23 1.87
  72  0.725  0.875  0.500-   8 1.78   3 1.78  20 1.87  24 1.87
  73  0.475  0.375  0.000-  25 1.78  30 1.78  15 1.87  11 1.87
  74  0.475  0.875  0.000-  29 1.78  26 1.78  16 1.87  12 1.87
  75  0.975  0.375  0.000-  27 1.78  32 1.78  13 1.87   9 1.87
  76  0.975  0.875  0.000-  31 1.78  28 1.78  14 1.87  10 1.87
  77  0.275  0.125  0.500-  18 1.78  21 1.78   5 1.87   1 1.87
  78  0.275  0.625  0.500-  17 1.78  22 1.78   6 1.87   2 1.87
  79  0.775  0.125  0.500-  20 1.78  23 1.78   7 1.87   3 1.87
  80  0.775  0.625  0.500-  19 1.78  24 1.78   8 1.87   4 1.87

  LATTYP: Found a simple orthorhombic cell.
 ALAT       =     6.7420601970
 B/A-ratio  =     1.3681458986
 C/A-ratio  =     1.4070268484
  
  Lattice vectors:
  
 A1 = (   0.0000000000,   0.0000000000,   6.7420601970)
 A2 = (   9.2241220065,   0.0000000000,   0.0000000000)
 A3 = (   0.0000000000,   9.4862597109,   0.0000000000)


Analysis of symmetry for initial positions (statically):
=====================================================================
 Subroutine PRICEL returns following result:
 
  LATTYP: Found a simple orthorhombic cell.
 ALAT       =     4.6120610035
 B/A-ratio  =     1.0284187391
 C/A-ratio  =     1.4618323981
  
  Lattice vectors:
  
 A1 = (   4.6120610035,   0.0000000000,   0.0000000000)
 A2 = (   0.0000000000,   4.7431299617,   0.0000000000)
 A3 = (   0.0000000000,   0.0000000000,   6.7420601970)
 
   4 primitive cells build up your supercell.
 

 Routine SETGRP: Setting up the symmetry group for a 
 simple orthorhombic supercell.


 Subroutine GETGRP returns: Found  8 space group operations
 (whereof  2 operations were pure point group operations)
 out of a pool of  8 trial point group operations.


The static configuration has the point symmetry S_2 .
 The point group associated with its full space group is D_2h.


Analysis of symmetry for dynamics (positions and initial velocities):
=====================================================================
 Subroutine PRICEL returns following result:
 
  LATTYP: Found a simple orthorhombic cell.
 ALAT       =     4.6120610035
 B/A-ratio  =     1.0284187391
 C/A-ratio  =     1.4618323981
  
  Lattice vectors:
  
 A1 = (   4.6120610035,   0.0000000000,   0.0000000000)
 A2 = (   0.0000000000,   4.7431299617,   0.0000000000)
 A3 = (   0.0000000000,   0.0000000000,   6.7420601970)
 
   4 primitive cells build up your supercell.
 

 Routine SETGRP: Setting up the symmetry group for a 
 simple orthorhombic supercell.


 Subroutine GETGRP returns: Found  8 space group operations
 (whereof  2 operations were pure point group operations)
 out of a pool of  8 trial point group operations.


The dynamic configuration has the point symmetry S_2 .
 The point group associated with its full space group is D_2h.


Analysis of constrained symmetry for selective dynamics:
=====================================================================
 Subroutine PRICEL returns following result:
 
  LATTYP: Found a simple orthorhombic cell.
 ALAT       =     4.6120610035
 B/A-ratio  =     1.0284187391
 C/A-ratio  =     1.4618323981
  
  Lattice vectors:
  
 A1 = (   4.6120610035,   0.0000000000,   0.0000000000)
 A2 = (   0.0000000000,   4.7431299617,   0.0000000000)
 A3 = (   0.0000000000,   0.0000000000,   6.7420601970)
 
   4 primitive cells build up your supercell.
 

 Routine SETGRP: Setting up the symmetry group for a 
 simple orthorhombic supercell.


 Subroutine GETGRP returns: Found  8 space group operations
 (whereof  2 operations were pure point group operations)
 out of a pool of  8 trial point group operations.


The constrained configuration has the point symmetry S_2 .
 The point group associated with its full space group is D_2h.


 Subroutine INISYM returns: Found  8 space group operations
 (whereof  2 operations are pure point group operations),
 and found     4 'primitive' translations


----------------------------------------------------------------------------------------

                                     Primitive cell                                     

  volume of cell :     147.4866

  direct lattice vectors                    reciprocal lattice vectors
     4.612061003  0.000000000  0.000000000     0.216822804  0.000000000  0.000000000
     0.000000000  4.743129962  0.000000000     0.000000000  0.210831246  0.000000000
     0.000000000  0.000000000  6.742060197     0.000000000  0.000000000  0.148322615

  length of vectors
     4.612061003  4.743129962  6.742060197     0.216822804  0.210831246  0.148322615

  position of ions in fractional coordinates (direct lattice)
     0.252301010  0.031394432  0.389988368
     0.252301010  0.468605564  0.610011602
     0.247698990  0.531394421  0.110011610
     0.247698990  0.968605501  0.889988398
     0.747698961  0.968605501  0.610011602
     0.747698961  0.531394421  0.389988368
     0.752301039  0.468605564  0.889988398
     0.752301039  0.031394432  0.110011610
     0.107072531  0.102390997  0.654148561
     0.107072531  0.397608992  0.345851469
     0.392927454  0.602391023  0.845851439
     0.392927454  0.897608899  0.154148517
     0.892927514  0.897608899  0.345851469
     0.892927514  0.602391023  0.654148561
     0.607072486  0.397608992  0.154148517
     0.607072486  0.102390997  0.845851439
     0.050188047  0.249999994  0.000000000
     0.449811960  0.749999961  0.500000000
     0.949811900  0.749999961  0.000000000
     0.550188099  0.249999994  0.500000000

  ion indices of the primitive-cell ions
   primitive index   ion index
                 1           1
                 2           5
                 3          10
                 4          14
                 5          18
                 6          22
                 7          27
                 8          31
                 9          33
                10          37
                11          42
                12          46
                13          52
                14          56
                15          57
                16          61
                17          65
                18          70
                19          76
                20          77

----------------------------------------------------------------------------------------



 KPOINTS: k-points                                

Automatic generation of k-mesh.
 Grid dimensions read from file:
 generate k-points for:    4    4    4

 Generating k-lattice:

  Cartesian coordinates                     Fractional coordinates (reciprocal lattice)
     0.027102851  0.000000000  0.000000000     0.250000000  0.000000000  0.000000000
     0.000000000  0.026353906  0.000000000     0.000000000  0.250000000  0.000000000
     0.000000000  0.000000000  0.037080654     0.000000000  0.000000000  0.250000000

  Length of vectors
     0.027102851  0.026353906  0.037080654

  Shift w.r.t. Gamma in fractional coordinates (k-lattice)
     0.500000000  0.500000000  0.500000000

 
 Subroutine IBZKPT returns following result:
 ===========================================
 
 Found      8 irreducible k-points:
 
 Following reciprocal coordinates:
            Coordinates               Weight
  0.125000  0.125000  0.125000      8.000000
  0.375000  0.125000  0.125000      8.000000
  0.125000  0.375000  0.125000      8.000000
  0.375000  0.375000  0.125000      8.000000
  0.125000  0.125000  0.375000      8.000000
  0.375000  0.125000  0.375000      8.000000
  0.125000  0.375000  0.375000      8.000000
  0.375000  0.375000  0.375000      8.000000
 
 Following cartesian coordinates:
            Coordinates               Weight
  0.013551  0.013177  0.018540      8.000000
  0.040654  0.013177  0.018540      8.000000
  0.013551  0.039531  0.018540      8.000000
  0.040654  0.039531  0.018540      8.000000
  0.013551  0.013177  0.055621      8.000000
  0.040654  0.013177  0.055621      8.000000
  0.013551  0.039531  0.055621      8.000000
  0.040654  0.039531  0.055621      8.000000
 


--------------------------------------------------------------------------------------------------------




 Dimension of arrays:
   k-points           NKPTS =      8   k-points in BZ     NKDIM =      8   number of bands    NBANDS=    233
   number of dos      NEDOS =    301   number of ions     NIONS =     80
   non local maximal  LDIM  =      4   non local SUM 2l+1 LMDIM =      8
   total plane-waves  NPLWV =  82944
   max r-space proj   IRMAX =   1599   max aug-charges    IRDMAX=   5671
   dimension x,y,z NGX =    48 NGY =   48 NGZ =   36
   dimension x,y,z NGXF=    96 NGYF=   96 NGZF=   72
   support grid    NGXF=    96 NGYF=   96 NGZF=   72
   ions per type =              32  48
   NGX,Y,Z   is equivalent  to a cutoff of   8.65,  8.41,  8.88 a.u.
   NGXF,Y,Z  is equivalent  to a cutoff of  17.30, 16.82, 17.75 a.u.

 SYSTEM =  Alumina_orthorombic_cell_under_strain   
 POSCAR =     Al  O                                

 Startparameter for this run:
   NWRITE =      2    write-flag & timer
   PREC   = normal    normal or accurate (medium, high low for compatibility)
   ISTART =      0    job   : 0-new  1-cont  2-samecut
   ICHARG =      2    charge: 1-file 2-atom 10-const
   ISPIN  =      1    spin polarized calculation?
   LNONCOLLINEAR =      F non collinear calculations
   LSORBIT =      F    spin-orbit coupling
   INIWAV =      1    electr: 0-lowe 1-rand  2-diag
   LASPH  =      F    aspherical Exc in radial PAW
 Electronic Relaxation 1
   ENCUT  =  400.0 eV  29.40 Ry    5.42 a.u.  15.04 15.47 10.99*2*pi/ulx,y,z
   ENINI  =  400.0     initial cutoff
   ENAUG  =  605.4 eV  augmentation charge cutoff
   NELM   =    100;   NELMIN=  2; NELMDL= -5     # of ELM steps 
   EDIFF  = 0.1E-05   stopping-criterion for ELM
   LREAL  =      T    real-space projection
   NLSPLINE    = F    spline interpolate recip. space projectors
   LCOMPAT=      F    compatible to vasp.4.4
   GGA_COMPAT  = T    GGA compatible to vasp.4.4-vasp.4.6
   LMAXPAW     = -100 max onsite density
   LMAXMIX     =    2 max onsite mixed and CHGCAR
   VOSKOWN=      0    Vosko Wilk Nusair interpolation
   ROPT   =   -0.00050  -0.00050
 Ionic relaxation
   EDIFFG = -.1E-02   stopping-criterion for IOM
   NSW    =      0    number of steps for IOM
   NBLOCK =      1;   KBLOCK =      1    inner block; outer block 
   IBRION =     -1    ionic relax: 0-MD 1-quasi-New 2-CG
   NFREE  =      0    steps in history (QN), initial steepest desc. (CG)
   ISIF   =      2    stress and relaxation
   IWAVPR =     10    prediction:  0-non 1-charg 2-wave 3-comb
   ISYM   =      2    0-nonsym 1-usesym 2-fastsym
   LCORR  =      T    Harris-Foulkes like correction to forces

   POTIM  = 0.5000    time-step for ionic-motion
   TEIN   =    0.0    initial temperature
   TEBEG  =    0.0;   TEEND  =   0.0 temperature during run
   SMASS  =  -3.00    Nose mass-parameter (am)
   estimated Nose-frequenzy (Omega)   =  0.10E-29 period in steps = 0.13E+47 mass=  -0.194E-26a.u.
   SCALEE = 1.0000    scale energy and forces
   NPACO  =    256;   APACO  = 10.0  distance and # of slots for P.C.
   PSTRESS=    0.0 pullay stress

  Mass of Ions in am
   POMASS =  26.98 16.00
  Ionic Valenz
   ZVAL   =   3.00  6.00
  Atomic Wigner-Seitz radii
   RWIGS  =  -1.00 -1.00
  virtual crystal weights 
   VCA    =   1.00  1.00
   NELECT =     384.0000    total number of electrons
   NUPDOWN=      -1.0000    fix difference up-down

 DOS related values:
   EMIN   =  10.00;   EMAX   =-10.00  energy-range for DOS
   EFERMI =   0.00
   ISMEAR =     1;   SIGMA  =   0.03  broadening in eV -4-tet -1-fermi 0-gaus

 Electronic relaxation 2 (details)
   IALGO  =     38    algorithm
   LDIAG  =      T    sub-space diagonalisation (order eigenvalues)
   LSUBROT=      F    optimize rotation matrix (better conditioning)
   TURBO    =      0    0=normal 1=particle mesh
   IRESTART =      0    0=no restart 2=restart with 2 vectors
   NREBOOT  =      0    no. of reboots
   NMIN     =      0    reboot dimension
   EREF     =   0.00    reference energy to select bands
   IMIX   =      4    mixing-type and parameters
     AMIX     =   0.40;   BMIX     =  1.00
     AMIX_MAG =   1.60;   BMIX_MAG =  1.00
     AMIN     =   0.10
     WC   =   100.;   INIMIX=   1;  MIXPRE=   1;  MAXMIX= -45

 Intra band minimization:
   WEIMIN = 0.0000     energy-eigenvalue tresh-hold
   EBREAK =  0.11E-08  absolut break condition
   DEPER  =   0.30     relativ break condition  

   TIME   =   0.40     timestep for ELM

  volume/ion in A,a.u.               =       7.37        49.76
  Fermi-wavevector in a.u.,A,eV,Ry     =   1.418778  2.681101 27.387577  2.012930
  Thomas-Fermi vector in A             =   2.539868

 Write flags
   LWAVE        =      T    write WAVECAR
   LDOWNSAMPLE  =      F    k-point downsampling of WAVECAR
   LCHARG       =      T    write CHGCAR
   LVTOT        =      F    write LOCPOT, total local potential
   LVHAR        =      F    write LOCPOT, Hartree potential only
   LELF         =      F    write electronic localiz. function (ELF)
   LORBIT       =      0    0 simple, 1 ext, 2 COOP (PROOUT), +10 PAW based schemes


 Dipole corrections
   LMONO  =      F    monopole corrections only (constant potential shift)
   LDIPOL =      F    correct potential (dipole corrections)
   IDIPOL =      0    1-x, 2-y, 3-z, 4-all directions 
   EPSILON=  1.0000000 bulk dielectric constant

 Exchange correlation treatment:
   GGA     =    --    GGA type
   LEXCH   =     8    internal setting for exchange type
   LIBXC   =     F    Libxc                    
   VOSKOWN =     0    Vosko Wilk Nusair interpolation
   LHFCALC =     F    Hartree Fock is set to
   LHFONE  =     F    Hartree Fock one center treatment
   AEXX    =    0.0000 exact exchange contribution

 Linear response parameters
   LEPSILON=     F    determine dielectric tensor
   LRPA    =     F    only Hartree local field effects (RPA)
   LNABLA  =     F    use nabla operator in PAW spheres
   LVEL    =     F    velocity operator in full k-point grid
   CSHIFT  =0.1000    complex shift for real part using Kramers Kronig
   OMEGAMAX=  -1.0    maximum frequency
   DEG_THRESHOLD= 0.2000000E-02 threshold for treating states as degnerate
   RTIME   =   -0.100 relaxation time in fs
  (WPLASMAI=    0.000 imaginary part of plasma frequency in eV, 0.658/RTIME)
   DFIELD  = 0.0000000 0.0000000 0.0000000 field for delta impulse in time

  Optional k-point grid parameters
   LKPOINTS_OPT  =     F    use optional k-point grid
   KPOINTS_OPT_MODE=     1    mode for optional k-point grid

 Orbital magnetization related:
   ORBITALMAG=     F  switch on orbital magnetization
   LCHIMAG   =     F  perturbation theory with respect to B field
   DQ        =  0.001000  dq finite difference perturbation B field
   LLRAUG    =     F  two centre corrections for induced B field



--------------------------------------------------------------------------------------------------------


 Static calculation
 charge density and potential will be updated during run
 non-spin polarized calculation
 Variant of blocked Davidson
 Davidson routine will perform the subspace rotation
 perform sub-space diagonalisation
    after iterative eigenvector-optimisation
 modified Broyden-mixing scheme, WC =      100.0
 initial mixing is a Kerker type mixing with AMIX =  0.4000 and BMIX =      1.0000
 Hartree-type preconditioning will be used
 using additional bands           41
 real space projection scheme for non local part
 use partial core corrections
 calculate Harris-corrections to forces   (improved forces if not selfconsistent)
 use gradient corrections 
 use of overlap-Matrix (Vanderbilt PP)
 Methfessel and Paxton  Order N= 1 SIGMA  =   0.03


--------------------------------------------------------------------------------------------------------


  energy-cutoff  :      400.00
  volume of cell :      589.95
      direct lattice vectors                 reciprocal lattice vectors
     9.224122006  0.000000000  0.000000000     0.108411402  0.000000000  0.000000000
     0.000000000  9.486259711  0.000000000     0.000000000  0.105415625  0.000000000
     0.000000000  0.000000000  6.742060197     0.000000000  0.000000000  0.148322615

  length of vectors
     9.224122006  9.486259711  6.742060197     0.108411402  0.105415625  0.148322615



 k-points in units of 2pi/SCALE and weight: k-points                                
   0.01355143  0.01317695  0.01854033       0.125
   0.04065428  0.01317695  0.01854033       0.125
   0.01355143  0.03953086  0.01854033       0.125
   0.04065428  0.03953086  0.01854033       0.125
   0.01355143  0.01317695  0.05562098       0.125
   0.04065428  0.01317695  0.05562098       0.125
   0.01355143  0.03953086  0.05562098       0.125
   0.04065428  0.03953086  0.05562098       0.125

 k-points in reciprocal lattice and weights: k-points                                
   0.12500000  0.12500000  0.12500000       0.125
   0.37500000  0.12500000  0.12500000       0.125
   0.12500000  0.37500000  0.12500000       0.125
   0.37500000  0.37500000  0.12500000       0.125
   0.12500000  0.12500000  0.37500000       0.125
   0.37500000  0.12500000  0.37500000       0.125
   0.12500000  0.37500000  0.37500000       0.125
   0.37500000  0.37500000  0.37500000       0.125

 position of ions in fractional coordinates (direct lattice) 
   0.12615050  0.01569722  0.38998837
   0.12615050  0.51569723  0.38998837
   0.62615052  0.01569722  0.38998837
   0.62615052  0.51569723  0.38998837
   0.12615050  0.23430279  0.61001160
   0.12615050  0.73430277  0.61001160
   0.62615052  0.23430279  0.61001160
   0.62615052  0.73430277  0.61001160
   0.12384950  0.26569723  0.11001161
   0.12384950  0.76569723  0.11001161
   0.62384948  0.26569723  0.11001161
   0.62384948  0.76569723  0.11001161
   0.12384950  0.48430277  0.88998840
   0.12384950  0.98430277  0.88998840
   0.62384948  0.48430277  0.88998840
   0.62384948  0.98430277  0.88998840
   0.37384948  0.48430277  0.61001160
   0.37384948  0.98430277  0.61001160
   0.87384948  0.48430277  0.61001160
   0.87384948  0.98430277  0.61001160
   0.37384948  0.26569723  0.38998837
   0.37384948  0.76569723  0.38998837
   0.87384948  0.26569723  0.38998837
   0.87384948  0.76569723  0.38998837
   0.37615052  0.23430279  0.88998840
   0.37615052  0.73430277  0.88998840
   0.87615052  0.23430279  0.88998840
   0.87615052  0.73430277  0.88998840
   0.37615052  0.01569722  0.11001161
   0.37615052  0.51569723  0.11001161
   0.87615052  0.01569722  0.11001161
   0.87615052  0.51569723  0.11001161
   0.05353627  0.05119550  0.65414856
   0.05353627  0.55119553  0.65414856
   0.55353624  0.05119550  0.65414856
   0.55353624  0.55119553  0.65414856
   0.05353627  0.19880450  0.34585147
   0.05353627  0.69880447  0.34585147
   0.55353624  0.19880450  0.34585147
   0.55353624  0.69880447  0.34585147
   0.19646373  0.30119550  0.84585144
   0.19646373  0.80119553  0.84585144
   0.69646370  0.30119550  0.84585144
   0.69646370  0.80119553  0.84585144
   0.19646373  0.44880450  0.15414852
   0.19646373  0.94880447  0.15414852
   0.69646370  0.44880450  0.15414852
   0.69646370  0.94880447  0.15414852
   0.44646376  0.44880450  0.34585147
   0.44646376  0.94880447  0.34585147
   0.94646376  0.44880450  0.34585147
   0.94646376  0.94880447  0.34585147
   0.44646376  0.30119550  0.65414856
   0.44646376  0.80119553  0.65414856
   0.94646376  0.30119550  0.65414856
   0.94646376  0.80119553  0.65414856
   0.30353624  0.19880450  0.15414852
   0.30353624  0.69880447  0.15414852
   0.80353624  0.19880450  0.15414852
   0.80353624  0.69880447  0.15414852
   0.30353624  0.05119550  0.84585144
   0.30353624  0.55119553  0.84585144
   0.80353624  0.05119550  0.84585144
   0.80353624  0.55119553  0.84585144
   0.02509402  0.12500000  0.00000000
   0.02509402  0.62500000  0.00000000
   0.52509405  0.12500000  0.00000000
   0.52509405  0.62500000  0.00000000
   0.22490598  0.37500000  0.50000000
   0.22490598  0.87500000  0.50000000
   0.72490601  0.37500000  0.50000000
   0.72490601  0.87500000  0.50000000
   0.47490595  0.37500000  0.00000000
   0.47490595  0.87500000  0.00000000
   0.97490595  0.37500000  0.00000000
   0.97490595  0.87500000  0.00000000
   0.27509405  0.12500000  0.50000000
   0.27509405  0.62500000  0.50000000
   0.77509405  0.12500000  0.50000000
   0.77509405  0.62500000  0.50000000

 position of ions in cartesian coordinates  (Angst):
   1.16362765  0.14890787  2.62932505
   1.16362765  4.89203783  2.62932505
   5.77568879  0.14890787  2.62932505
   5.77568879  4.89203783  2.62932505
   1.16362765  2.22265709  4.11273494
   1.16362765  6.96578681  4.11273494
   5.77568879  2.22265709  4.11273494
   5.77568879  6.96578681  4.11273494
   1.14240285  2.52047291  0.74170490
   1.14240285  7.26360276  0.74170490
   5.75446372  2.52047291  0.74170490
   5.75446372  7.26360276  0.74170490
   1.14240285  4.59422188  6.00035535
   1.14240285  9.33735173  6.00035535
   5.75446372  4.59422188  6.00035535
   5.75446372  9.33735173  6.00035535
   3.44843322  4.59422188  4.11273494
   3.44843322  9.33735173  4.11273494
   8.06049422  4.59422188  4.11273494
   8.06049422  9.33735173  4.11273494
   3.44843322  2.52047291  2.62932505
   3.44843322  7.26360276  2.62932505
   8.06049422  2.52047291  2.62932505
   8.06049422  7.26360276  2.62932505
   3.46965829  2.22265709  6.00035535
   3.46965829  6.96578681  6.00035535
   8.08171929  2.22265709  6.00035535
   8.08171929  6.96578681  6.00035535
   3.46965829  0.14890787  0.74170490
   3.46965829  4.89203783  0.74170490
   8.08171929  0.14890787  0.74170490
   8.08171929  4.89203783  0.74170490
   0.49382504  0.48565380  4.41030898
   0.49382504  5.22878394  4.41030898
   5.10588584  0.48565380  4.41030898
   5.10588584  5.22878394  4.41030898
   0.49382504  1.88591112  2.33175142
   0.49382504  6.62904070  2.33175142
   5.10588584  1.88591112  2.33175142
   5.10588584  6.62904070  2.33175142
   1.81220539  2.85721873  5.70278132
   1.81220539  7.60034887  5.70278132
   6.42426612  2.85721873  5.70278132
   6.42426612  7.60034887  5.70278132
   1.81220539  4.25747605  1.03927858
   1.81220539  9.00060562  1.03927858
   6.42426612  4.25747605  1.03927858
   6.42426612  9.00060562  1.03927858
   4.11823617  4.25747605  2.33175142
   4.11823617  9.00060562  2.33175142
   8.73029717  4.25747605  2.33175142
   8.73029717  9.00060562  2.33175142
   4.11823617  2.85721873  4.41030898
   4.11823617  7.60034887  4.41030898
   8.73029717  2.85721873  4.41030898
   8.73029717  7.60034887  4.41030898
   2.79985534  1.88591112  1.03927858
   2.79985534  6.62904070  1.03927858
   7.41191634  1.88591112  1.03927858
   7.41191634  6.62904070  1.03927858
   2.79985534  0.48565380  5.70278132
   2.79985534  5.22878394  5.70278132
   7.41191634  0.48565380  5.70278132
   7.41191634  5.22878394  5.70278132
   0.23147034  1.18578246  0.00000000
   0.23147034  5.92891232  0.00000000
   4.84353158  1.18578246  0.00000000
   4.84353158  5.92891232  0.00000000
   2.07456020  3.55734739  3.37103010
   2.07456020  8.30047725  3.37103010
   6.68662148  3.55734739  3.37103010
   6.68662148  8.30047725  3.37103010
   4.38059043  3.55734739  0.00000000
   4.38059043  8.30047725  0.00000000
   8.99265143  3.55734739  0.00000000
   8.99265143  8.30047725  0.00000000
   2.53750108  1.18578246  3.37103010
   2.53750108  5.92891232  3.37103010
   7.14956208  1.18578246  3.37103010
   7.14956208  5.92891232  3.37103010



--------------------------------------------------------------------------------------------------------


 k-point   1 :   0.1250 0.1250 0.1250  plane waves:   10708
 k-point   2 :   0.3750 0.1250 0.1250  plane waves:   10700
 k-point   3 :   0.1250 0.3750 0.1250  plane waves:   10703
 k-point   4 :   0.3750 0.3750 0.1250  plane waves:   10723
 k-point   5 :   0.1250 0.1250 0.3750  plane waves:   10729
 k-point   6 :   0.3750 0.1250 0.3750  plane waves:   10735
 k-point   7 :   0.1250 0.3750 0.3750  plane waves:   10705
 k-point   8 :   0.3750 0.3750 0.3750  plane waves:   10731

 maximum and minimum number of plane-waves per node :     10735    10700

 maximum number of plane-waves:     10735
 maximum index in each direction: 
   IXMAX=   14   IYMAX=   15   IZMAX=   10
   IXMIN=  -15   IYMIN=  -15   IZMIN=  -11


 serial   3D FFT for wavefunctions
 parallel 3D FFT for charge:
    minimum data exchange during FFTs selected (reduces bandwidth)


 total amount of memory used by VASP MPI-rank0   443531. kBytes
=======================================================================

   base      :      30000. kBytes
   nonlr-proj:       9572. kBytes
   fftplans  :      23216. kBytes
   grid      :      41250. kBytes
   one-center:        245. kBytes
   wavefun   :     339248. kBytes

     INWAV:  cpu time      0.0002: real time      0.0004
 Broyden mixing: mesh for mixing (old mesh)
   NGX = 31   NGY = 31   NGZ = 21
  (NGX  = 96   NGY  = 96   NGZ  = 72)
  gives a total of  20181 points

 initial charge density was supplied:
 charge density of overlapping atoms calculated
 number of electron     384.0000000 magnetization 
 keeping initial charge density in first step


--------------------------------------------------------------------------------------------------------


 Maximum index for non-local projection operator         1505
 Maximum index for augmentation-charges         5299 (set IRDMAX)


--------------------------------------------------------------------------------------------------------


 First call to EWALD:  gamma=   0.211
 Maximum number of real-space cells 3x 2x 3
 Maximum number of reciprocal cells 3x 3x 2

    FEWALD:  cpu time      0.0761: real time      0.0765


--------------------------------------- Iteration      1(   1)  ---------------------------------------


    POTLOK:  cpu time      0.3332: real time      0.3354
    SETDIJ:  cpu time      0.0917: real time      0.0923
     EDDAV:  cpu time     46.1764: real time     47.0131
       DOS:  cpu time      0.0024: real time      0.0026
    --------------------------------------------
      LOOP:  cpu time     46.6038: real time     47.4434

 eigenvalue-minimisations  :  3728
 total energy-change (2. order) : 0.1896790E+04  (-0.1809639E+05)
 number of electron     384.0000000 magnetization 
 augmentation part      384.0000000 magnetization 

 Free energy of the ion-electron system (eV)
  ---------------------------------------------------
  alpha Z        PSCENC =       700.25054765
  Ewald energy   TEWEN  =    -20297.54415359
  -Hartree energ DENC   =     -4601.96929193
  -exchange      EXHF   =         0.00000000
  -V(xc)+E(xc)   XCENC  =       557.98980253
  PAW double counting   =     18752.77991877   -17816.57094691
  entropy T*S    EENTRO =         0.00046481
  eigenvalues    EBANDS =      2139.99915426
  atomic energy  EATOM  =     22461.85434800
  Solvation  Ediel_sol  =         0.00000000
  ---------------------------------------------------
  free energy    TOTEN  =      1896.78984359 eV

  energy without entropy =     1896.78937877  energy(sigma->0) =     1896.78968865


--------------------------------------------------------------------------------------------------------




--------------------------------------- Iteration      1(   2)  ---------------------------------------


     EDDAV:  cpu time     52.2319: real time     52.9150
       DOS:  cpu time      0.0022: real time      0.0022
    --------------------------------------------
      LOOP:  cpu time     52.2342: real time     52.9175

 eigenvalue-minimisations  :  4344
 total energy-change (2. order) :-0.2429110E+04  (-0.2377496E+04)
 number of electron     384.0000000 magnetization 
 augmentation part      384.0000000 magnetization 

 Free energy of the ion-electron system (eV)
  ---------------------------------------------------
  alpha Z        PSCENC =       700.25054765
  Ewald energy   TEWEN  =    -20297.54415359
  -Hartree energ DENC   =     -4601.96929193
  -exchange      EXHF   =         0.00000000
  -V(xc)+E(xc)   XCENC  =       557.98980253
  PAW double counting   =     18752.77991877   -17816.57094691
  entropy T*S    EENTRO =         0.00018844
  eigenvalues    EBANDS =      -289.11057540
  atomic energy  EATOM  =     22461.85434800
  Solvation  Ediel_sol  =         0.00000000
  ---------------------------------------------------
  free energy    TOTEN  =      -532.32016245 eV

  energy without entropy =     -532.32035089  energy(sigma->0) =     -532.32022526


--------------------------------------------------------------------------------------------------------




--------------------------------------- Iteration      1(   3)  ---------------------------------------


     EDDAV:  cpu time     52.4485: real time     53.2618
       DOS:  cpu time      0.0024: real time      0.0026
    --------------------------------------------
      LOOP:  cpu time     52.4508: real time     53.2642

 eigenvalue-minimisations  :  4376
 total energy-change (2. order) :-0.1143064E+03  (-0.1138896E+03)
 number of electron     384.0000000 magnetization 
 augmentation part      384.0000000 magnetization 

 Free energy of the ion-electron system (eV)
  ---------------------------------------------------
  alpha Z        PSCENC =       700.25054765
  Ewald energy   TEWEN  =    -20297.54415359
  -Hartree energ DENC   =     -4601.96929193
  -exchange      EXHF   =         0.00000000
  -V(xc)+E(xc)   XCENC  =       557.98980253
  PAW double counting   =     18752.77991877   -17816.57094691
  entropy T*S    EENTRO =         0.00090260
  eigenvalues    EBANDS =      -403.41769891
  atomic energy  EATOM  =     22461.85434800
  Solvation  Ediel_sol  =         0.00000000
  ---------------------------------------------------
  free energy    TOTEN  =      -646.62657181 eV

  energy without entropy =     -646.62747440  energy(sigma->0) =     -646.62687267


--------------------------------------------------------------------------------------------------------




--------------------------------------- Iteration      1(   4)  ---------------------------------------


     EDDAV:  cpu time     52.2081: real time     52.9606
       DOS:  cpu time      0.0023: real time      0.0025
    --------------------------------------------
      LOOP:  cpu time     52.2104: real time     52.9631

 eigenvalue-minimisations  :  4344
 total energy-change (2. order) :-0.1175217E+01  (-0.1172132E+01)
 number of electron     384.0000000 magnetization 
 augmentation part      384.0000000 magnetization 

 Free energy of the ion-electron system (eV)
  ---------------------------------------------------
  alpha Z        PSCENC =       700.25054765
  Ewald energy   TEWEN  =    -20297.54415359
  -Hartree energ DENC   =     -4601.96929193
  -exchange      EXHF   =         0.00000000
  -V(xc)+E(xc)   XCENC  =       557.98980253
  PAW double counting   =     18752.77991877   -17816.57094691
  entropy T*S    EENTRO =         0.00091811
  eigenvalues    EBANDS =      -404.59293101
  atomic energy  EATOM  =     22461.85434800
  Solvation  Ediel_sol  =         0.00000000
  ---------------------------------------------------
  free energy    TOTEN  =      -647.80178839 eV

  energy without entropy =     -647.80270650  energy(sigma->0) =     -647.80209443


--------------------------------------------------------------------------------------------------------




--------------------------------------- Iteration      1(   5)  ---------------------------------------


     EDDAV:  cpu time     51.7486: real time     52.6216
       DOS:  cpu time      0.0024: real time      0.0024
    CHARGE:  cpu time      1.5677: real time      1.7004
    MIXING:  cpu time      0.0133: real time      0.0133
    --------------------------------------------
      LOOP:  cpu time     53.3320: real time     54.3378

 eigenvalue-minimisations  :  4336
 total energy-change (2. order) :-0.1980218E-01  (-0.1978133E-01)
 number of electron     384.0000045 magnetization 
 augmentation part       38.1922536 magnetization 

 Broyden mixing:
  rms(total) = 0.51982E+01    rms(broyden)= 0.51959E+01
  rms(prec ) = 0.68075E+01
  weight for this iteration     100.00

 Free energy of the ion-electron system (eV)
  ---------------------------------------------------
  alpha Z        PSCENC =       700.25054765
  Ewald energy   TEWEN  =    -20297.54415359
  -Hartree energ DENC   =     -4601.96929193
  -exchange      EXHF   =         0.00000000
  -V(xc)+E(xc)   XCENC  =       557.98980253
  PAW double counting   =     18752.77991877   -17816.57094691
  entropy T*S    EENTRO =         0.00091828
  eigenvalues    EBANDS =      -404.61273336
  atomic energy  EATOM  =     22461.85434800
  Solvation  Ediel_sol  =         0.00000000
  ---------------------------------------------------
  free energy    TOTEN  =      -647.82159057 eV

  energy without entropy =     -647.82250885  energy(sigma->0) =     -647.82189667


--------------------------------------------------------------------------------------------------------




--------------------------------------- Iteration      1(   6)  ---------------------------------------


    POTLOK:  cpu time      0.3664: real time      0.3705
    SETDIJ:  cpu time      0.0826: real time      0.0832
     EDDAV:  cpu time     49.4298: real time     50.1632
       DOS:  cpu time      0.0024: real time      0.0026
    CHARGE:  cpu time      1.5653: real time      1.5833
    MIXING:  cpu time      0.0116: real time      0.0117
    --------------------------------------------
      LOOP:  cpu time     51.4581: real time     52.2145

 eigenvalue-minimisations  :  4160
 total energy-change (2. order) : 0.6805701E+02  (-0.2654743E+02)
 number of electron     384.0000035 magnetization 
 augmentation part       32.8545136 magnetization 

 Broyden mixing:
  rms(total) = 0.18374E+01    rms(broyden)= 0.18350E+01
  rms(prec ) = 0.20592E+01
  weight for this iteration     100.00

 eigenvalues of (default mixing * dielectric matrix)
  average eigenvalue GAMMA=   1.0377
  1.0377

 Free energy of the ion-electron system (eV)
  ---------------------------------------------------
  alpha Z        PSCENC =       700.25054765
  Ewald energy   TEWEN  =    -20297.54415359
  -Hartree energ DENC   =     -5334.70568675
  -exchange      EXHF   =         0.00000000
  -V(xc)+E(xc)   XCENC  =       610.83804558
  PAW double counting   =     25398.67036887   -24478.41709367
  entropy T*S    EENTRO =         0.00058261
  eigenvalues    EBANDS =       359.28845959
  atomic energy  EATOM  =     22461.85434800
  Solvation  Ediel_sol  =         0.00000000
  ---------------------------------------------------
  free energy    TOTEN  =      -579.76458171 eV

  energy without entropy =     -579.76516433  energy(sigma->0) =     -579.76477592


--------------------------------------------------------------------------------------------------------




--------------------------------------- Iteration      1(   7)  ---------------------------------------


    POTLOK:  cpu time      0.3608: real time      0.3650
    SETDIJ:  cpu time      0.0817: real time      0.0823
     EDDAV:  cpu time     52.0671: real time     52.9367
       DOS:  cpu time      0.0024: real time      0.0025
    CHARGE:  cpu time      1.5584: real time      1.5792
    MIXING:  cpu time      0.0119: real time      0.0120
    --------------------------------------------
      LOOP:  cpu time     54.0823: real time     54.9776

 eigenvalue-minimisations  :  4424
 total energy-change (2. order) : 0.4239036E+00  (-0.8591551E+00)
 number of electron     384.0000033 magnetization 
 augmentation part       32.2036239 magnetization 

 Broyden mixing:
  rms(total) = 0.97228E+00    rms(broyden)= 0.97191E+00
  rms(prec ) = 0.10867E+01
  weight for this iteration     100.00

 eigenvalues of (default mixing * dielectric matrix)
  average eigenvalue GAMMA=   1.3589
  1.3068  1.4110

 Free energy of the ion-electron system (eV)
  ---------------------------------------------------
  alpha Z        PSCENC =       700.25054765
  Ewald energy   TEWEN  =    -20297.54415359
  -Hartree energ DENC   =     -5441.61012765
  -exchange      EXHF   =         0.00000000
  -V(xc)+E(xc)   XCENC  =       619.71968716
  PAW double counting   =     31342.32279215   -30422.98812852
  entropy T*S    EENTRO =         0.00053261
  eigenvalues    EBANDS =       458.65382406
  atomic energy  EATOM  =     22461.85434800
  Solvation  Ediel_sol  =         0.00000000
  ---------------------------------------------------
  free energy    TOTEN  =      -579.34067813 eV

  energy without entropy =     -579.34121074  energy(sigma->0) =     -579.34085567


--------------------------------------------------------------------------------------------------------




--------------------------------------- Iteration      1(   8)  ---------------------------------------


    POTLOK:  cpu time      0.3573: real time      0.3622
    SETDIJ:  cpu time      0.0831: real time      0.0838
     EDDAV:  cpu time     51.0045: real time     51.9042
       DOS:  cpu time      0.0023: real time      0.0023
    CHARGE:  cpu time      1.5574: real time      1.5747
    MIXING:  cpu time      0.0128: real time      0.0128
    --------------------------------------------
      LOOP:  cpu time     53.0173: real time     53.9401

 eigenvalue-minimisations  :  4328
 total energy-change (2. order) :-0.3445478E-01  (-0.5183976E-01)
 number of electron     384.0000033 magnetization 
 augmentation part       32.3389368 magnetization 

 Broyden mixing:
  rms(total) = 0.28447E+00    rms(broyden)= 0.28446E+00
  rms(prec ) = 0.33817E+00
  weight for this iteration     100.00

 eigenvalues of (default mixing * dielectric matrix)
  average eigenvalue GAMMA=   1.5836
  2.5277  1.1116  1.1116

 Free energy of the ion-electron system (eV)
  ---------------------------------------------------
  alpha Z        PSCENC =       700.25054765
  Ewald energy   TEWEN  =    -20297.54415359
  -Hartree energ DENC   =     -5459.25335642
  -exchange      EXHF   =         0.00000000
  -V(xc)+E(xc)   XCENC  =       622.51919911
  PAW double counting   =     35903.89927183   -34984.30932562
  entropy T*S    EENTRO =         0.00055853
  eigenvalues    EBANDS =       473.20777759
  atomic energy  EATOM  =     22461.85434800
  Solvation  Ediel_sol  =         0.00000000
  ---------------------------------------------------
  free energy    TOTEN  =      -579.37513292 eV

  energy without entropy =     -579.37569145  energy(sigma->0) =     -579.37531910


--------------------------------------------------------------------------------------------------------




--------------------------------------- Iteration      1(   9)  ---------------------------------------


    POTLOK:  cpu time      0.3558: real time      0.3596
    SETDIJ:  cpu time      0.0824: real time      0.0834
     EDDAV:  cpu time     51.3323: real time     52.3033
       DOS:  cpu time      0.0024: real time      0.0026
    CHARGE:  cpu time      1.5734: real time      1.6605
    MIXING:  cpu time      0.0138: real time      0.0139
    --------------------------------------------
      LOOP:  cpu time     53.3601: real time     54.4233

 eigenvalue-minimisations  :  4336
 total energy-change (2. order) :-0.3475250E-01  (-0.1920105E-01)
 number of electron     384.0000032 magnetization 
 augmentation part       32.2354557 magnetization 

 Broyden mixing:
  rms(total) = 0.80659E-01    rms(broyden)= 0.80617E-01
  rms(prec ) = 0.83502E-01
  weight for this iteration     100.00

 eigenvalues of (default mixing * dielectric matrix)
  average eigenvalue GAMMA=   1.7664
  1.0516  1.0516  2.4812  2.4812

 Free energy of the ion-electron system (eV)
  ---------------------------------------------------
  alpha Z        PSCENC =       700.25054765
  Ewald energy   TEWEN  =    -20297.54415359
  -Hartree energ DENC   =     -5492.35416722
  -exchange      EXHF   =         0.00000000
  -V(xc)+E(xc)   XCENC  =       625.76009595
  PAW double counting   =     37911.44574486   -36992.28006374
  entropy T*S    EENTRO =         0.00055904
  eigenvalues    EBANDS =       503.45720364
  atomic energy  EATOM  =     22461.85434800
  Solvation  Ediel_sol  =         0.00000000
  ---------------------------------------------------
  free energy    TOTEN  =      -579.40988542 eV

  energy without entropy =     -579.41044446  energy(sigma->0) =     -579.41007176


--------------------------------------------------------------------------------------------------------




--------------------------------------- Iteration      1(  10)  ---------------------------------------


    POTLOK:  cpu time      0.3514: real time      0.3552
    SETDIJ:  cpu time      0.0820: real time      0.0828
     EDDAV:  cpu time     51.1769: real time     52.4927
       DOS:  cpu time      0.0024: real time      0.0024
    CHARGE:  cpu time      1.5628: real time      1.5820
    MIXING:  cpu time      0.0143: real time      0.0145
    --------------------------------------------
      LOOP:  cpu time     53.1899: real time     54.5295

 eigenvalue-minimisations  :  4328
 total energy-change (2. order) :-0.4943822E-02  (-0.2688822E-02)
 number of electron     384.0000032 magnetization 
 augmentation part       32.2428572 magnetization 

 Broyden mixing:
  rms(total) = 0.27893E-01    rms(broyden)= 0.27865E-01
  rms(prec ) = 0.34336E-01
  weight for this iteration     100.00

 eigenvalues of (default mixing * dielectric matrix)
  average eigenvalue GAMMA=   1.5446
  2.6166  2.2557  1.0073  1.0073  0.8362

 Free energy of the ion-electron system (eV)
  ---------------------------------------------------
  alpha Z        PSCENC =       700.25054765
  Ewald energy   TEWEN  =    -20297.54415359
  -Hartree energ DENC   =     -5491.78638699
  -exchange      EXHF   =         0.00000000
  -V(xc)+E(xc)   XCENC  =       625.78241088
  PAW double counting   =     37274.47964807   -36355.25826632
  entropy T*S    EENTRO =         0.00054646
  eigenvalues    EBANDS =       502.80647661
  atomic energy  EATOM  =     22461.85434800
  Solvation  Ediel_sol  =         0.00000000
  ---------------------------------------------------
  free energy    TOTEN  =      -579.41482924 eV

  energy without entropy =     -579.41537570  energy(sigma->0) =     -579.41501139


--------------------------------------------------------------------------------------------------------




--------------------------------------- Iteration      1(  11)  ---------------------------------------


    POTLOK:  cpu time      0.3658: real time      0.3698
    SETDIJ:  cpu time      0.0858: real time      0.0864
     EDDAV:  cpu time     55.5208: real time     57.0777
       DOS:  cpu time      0.0024: real time      0.0024
    CHARGE:  cpu time      1.5752: real time      1.8228
    MIXING:  cpu time      0.0154: real time      0.0155
    --------------------------------------------
      LOOP:  cpu time     57.5654: real time     59.3746

 eigenvalue-minimisations  :  4736
 total energy-change (2. order) : 0.1103387E-02  (-0.5516357E-03)
 number of electron     384.0000032 magnetization 
 augmentation part       32.2418190 magnetization 

 Broyden mixing:
  rms(total) = 0.19909E-01    rms(broyden)= 0.19906E-01
  rms(prec ) = 0.21638E-01
  weight for this iteration     100.00

 eigenvalues of (default mixing * dielectric matrix)
  average eigenvalue GAMMA=   1.5770
  2.8419  2.5069  1.0471  1.0471  1.0096  1.0096

 Free energy of the ion-electron system (eV)
  ---------------------------------------------------
  alpha Z        PSCENC =       700.25054765
  Ewald energy   TEWEN  =    -20297.54415359
  -Hartree energ DENC   =     -5492.20187578
  -exchange      EXHF   =         0.00000000
  -V(xc)+E(xc)   XCENC  =       625.82405013
  PAW double counting   =     37328.65072867   -36409.43804732
  entropy T*S    EENTRO =         0.00055341
  eigenvalues    EBANDS =       503.19012298
  atomic energy  EATOM  =     22461.85434800
  Solvation  Ediel_sol  =         0.00000000
  ---------------------------------------------------
  free energy    TOTEN  =      -579.41372585 eV

  energy without entropy =     -579.41427927  energy(sigma->0) =     -579.41391033


--------------------------------------------------------------------------------------------------------




--------------------------------------- Iteration      1(  12)  ---------------------------------------


    POTLOK:  cpu time      0.3655: real time      0.3697
    SETDIJ:  cpu time      0.0818: real time      0.0826
     EDDAV:  cpu time     50.8485: real time     52.1529
       DOS:  cpu time      0.0018: real time      0.0018
    CHARGE:  cpu time      1.5848: real time      1.6046
    MIXING:  cpu time      0.0158: real time      0.0159
    --------------------------------------------
      LOOP:  cpu time     52.8982: real time     54.2276

 eigenvalue-minimisations  :  4264
 total energy-change (2. order) :-0.2479921E-04  (-0.2372582E-03)
 number of electron     384.0000032 magnetization 
 augmentation part       32.2476302 magnetization 

 Broyden mixing:
  rms(total) = 0.21298E-02    rms(broyden)= 0.20834E-02
  rms(prec ) = 0.26308E-02
  weight for this iteration     100.00

 eigenvalues of (default mixing * dielectric matrix)
  average eigenvalue GAMMA=   1.5083
  2.8055  2.4660  1.1879  1.0504  1.0504  0.9989  0.9989

 Free energy of the ion-electron system (eV)
  ---------------------------------------------------
  alpha Z        PSCENC =       700.25054765
  Ewald energy   TEWEN  =    -20297.54415359
  -Hartree energ DENC   =     -5491.68840759
  -exchange      EXHF   =         0.00000000
  -V(xc)+E(xc)   XCENC  =       625.79399585
  PAW double counting   =     37194.66919792   -36275.44213119
  entropy T*S    EENTRO =         0.00055598
  eigenvalues    EBANDS =       502.69229632
  atomic energy  EATOM  =     22461.85434800
  Solvation  Ediel_sol  =         0.00000000
  ---------------------------------------------------
  free energy    TOTEN  =      -579.41375065 eV

  energy without entropy =     -579.41430663  energy(sigma->0) =     -579.41393598


--------------------------------------------------------------------------------------------------------




--------------------------------------- Iteration      1(  13)  ---------------------------------------


    POTLOK:  cpu time      0.3615: real time      0.3657
    SETDIJ:  cpu time      0.0818: real time      0.0825
     EDDAV:  cpu time     51.1105: real time     52.6047
       DOS:  cpu time      0.0023: real time      0.0025
    CHARGE:  cpu time      1.5844: real time      1.6083
    MIXING:  cpu time      0.0164: real time      0.0167
    --------------------------------------------
      LOOP:  cpu time     53.1571: real time     54.6804

 eigenvalue-minimisations  :  4288
 total energy-change (2. order) : 0.7864073E-06  (-0.1292021E-04)
 number of electron     384.0000032 magnetization 
 augmentation part       32.2468267 magnetization 

 Broyden mixing:
  rms(total) = 0.16752E-02    rms(broyden)= 0.16746E-02
  rms(prec ) = 0.18620E-02
  weight for this iteration     100.00

 eigenvalues of (default mixing * dielectric matrix)
  average eigenvalue GAMMA=   1.5066
  2.8225  2.4549  1.7949  1.0131  1.0131  1.0628  1.0628  0.8286

 Free energy of the ion-electron system (eV)
  ---------------------------------------------------
  alpha Z        PSCENC =       700.25054765
  Ewald energy   TEWEN  =    -20297.54415359
  -Hartree energ DENC   =     -5491.70601695
  -exchange      EXHF   =         0.00000000
  -V(xc)+E(xc)   XCENC  =       625.79328404
  PAW double counting   =     37198.91410696   -36279.68915080
  entropy T*S    EENTRO =         0.00055540
  eigenvalues    EBANDS =       502.71272942
  atomic energy  EATOM  =     22461.85434800
  Solvation  Ediel_sol  =         0.00000000
  ---------------------------------------------------
  free energy    TOTEN  =      -579.41374987 eV

  energy without entropy =     -579.41430527  energy(sigma->0) =     -579.41393500


--------------------------------------------------------------------------------------------------------




--------------------------------------- Iteration      1(  14)  ---------------------------------------


    POTLOK:  cpu time      0.3619: real time      0.3663
    SETDIJ:  cpu time      0.0818: real time      0.0826
     EDDAV:  cpu time     51.6365: real time     53.1679
       DOS:  cpu time      0.0024: real time      0.0026
    CHARGE:  cpu time      1.5914: real time      1.6114
    MIXING:  cpu time      0.0194: real time      0.0196
    --------------------------------------------
      LOOP:  cpu time     53.6933: real time     55.2504

 eigenvalue-minimisations  :  4344
 total energy-change (2. order) : 0.8319912E-06  (-0.1870667E-05)
 number of electron     384.0000032 magnetization 
 augmentation part       32.2473841 magnetization 

 Broyden mixing:
  rms(total) = 0.53142E-03    rms(broyden)= 0.53064E-03
  rms(prec ) = 0.55238E-03
  weight for this iteration     100.00

 eigenvalues of (default mixing * dielectric matrix)
  average eigenvalue GAMMA=   1.5149
  2.8439  2.5001  2.1287  1.0204  1.0204  1.0835  1.0835  0.9768  0.9768

 Free energy of the ion-electron system (eV)
  ---------------------------------------------------
  alpha Z        PSCENC =       700.25054765
  Ewald energy   TEWEN  =    -20297.54415359
  -Hartree energ DENC   =     -5491.64746365
  -exchange      EXHF   =         0.00000000
  -V(xc)+E(xc)   XCENC  =       625.78737299
  PAW double counting   =     37192.30759638   -36273.08059395
  entropy T*S    EENTRO =         0.00055524
  eigenvalues    EBANDS =       502.65804190
  atomic energy  EATOM  =     22461.85434800
  Solvation  Ediel_sol  =         0.00000000
  ---------------------------------------------------
  free energy    TOTEN  =      -579.41374904 eV

  energy without entropy =     -579.41430427  energy(sigma->0) =     -579.41393411


--------------------------------------------------------------------------------------------------------




--------------------------------------- Iteration      1(  15)  ---------------------------------------


    POTLOK:  cpu time      0.3781: real time      0.3828
    SETDIJ:  cpu time      0.0865: real time      0.0872
     EDDAV:  cpu time     33.8443: real time     34.8084
       DOS:  cpu time      0.0025: real time      0.0027
    --------------------------------------------
      LOOP:  cpu time     34.3114: real time     35.2810

 eigenvalue-minimisations  :  2504
 total energy-change (2. order) : 0.2113193E-06  (-0.1090082E-06)
 number of electron     384.0000032 magnetization 
 augmentation part       32.2473841 magnetization 

 Free energy of the ion-electron system (eV)
  ---------------------------------------------------
  alpha Z        PSCENC =       700.25054765
  Ewald energy   TEWEN  =    -20297.54415359
  -Hartree energ DENC   =     -5491.67043551
  -exchange      EXHF   =         0.00000000
  -V(xc)+E(xc)   XCENC  =       625.78811108
  PAW double counting   =     37189.95569827   -36270.72864169
  entropy T*S    EENTRO =         0.00055526
  eigenvalues    EBANDS =       502.68022171
  atomic energy  EATOM  =     22461.85434800
  Solvation  Ediel_sol  =         0.00000000
  ---------------------------------------------------
  free energy    TOTEN  =      -579.41374882 eV

  energy without entropy =     -579.41430409  energy(sigma->0) =     -579.41393391


--------------------------------------------------------------------------------------------------------




 average (electrostatic) potential at core
  the test charge radii are     1.0406  0.7215
  (the norm of the test charge is              1.0000)
       1 -69.2057       2 -69.2057       3 -69.2057       4 -69.2057       5 -69.2057
       6 -69.2057       7 -69.2057       8 -69.2057       9 -69.2057      10 -69.2057
      11 -69.2057      12 -69.2057      13 -69.2057      14 -69.2057      15 -69.2057
      16 -69.2057      17 -69.2057      18 -69.2057      19 -69.2057      20 -69.2057
      21 -69.2057      22 -69.2057      23 -69.2057      24 -69.2057      25 -69.2057
      26 -69.2057      27 -69.2057      28 -69.2057      29 -69.2057      30 -69.2057
      31 -69.2057      32 -69.2057      33 -65.3228      34 -65.3228      35 -65.3228
      36 -65.3228      37 -65.3228      38 -65.3228      39 -65.3228      40 -65.3228
      41 -65.3228      42 -65.3228      43 -65.3228      44 -65.3228      45 -65.3228
      46 -65.3228      47 -65.3228      48 -65.3228      49 -65.3228      50 -65.3228
      51 -65.3228      52 -65.3228      53 -65.3228      54 -65.3228      55 -65.3228
      56 -65.3228      57 -65.3228      58 -65.3228      59 -65.3228      60 -65.3228
      61 -65.3228      62 -65.3228      63 -65.3228      64 -65.3228      65 -65.1439
      66 -65.1439      67 -65.1439      68 -65.1440      69 -65.1439      70 -65.1439
      71 -65.1439      72 -65.1439      73 -65.1440      74 -65.1440      75 -65.1439
      76 -65.1439      77 -65.1439      78 -65.1439      79 -65.1439      80 -65.1439



 E-fermi :   8.1241     XC(G=0): -12.4802     alpha+bet :-19.4071

 Fermi energy:         8.1240931959

 k-point     1 :       0.1250    0.1250    0.1250
  band No.  band energies     occupation 
      1     -12.2321      2.00000
      2     -11.5147      2.00000
      3     -11.4821      2.00000
      4     -11.0818      2.00000
      5     -11.0383      2.00000
      6     -11.0054      2.00000
      7     -10.8486      2.00000
      8     -10.4871      2.00000
      9     -10.4702      2.00000
     10     -10.3984      2.00000
     11     -10.3875      2.00000
     12     -10.2008      2.00000
     13     -10.0928      2.00000
     14     -10.0338      2.00000
     15      -9.9079      2.00000
     16      -9.7519      2.00000
     17      -9.7371      2.00000
     18      -9.6226      2.00000
     19      -9.5820      2.00000
     20      -9.5571      2.00000
     21      -9.5210      2.00000
     22      -9.5132      2.00000
     23      -9.4344      2.00000
     24      -9.3513      2.00000
     25      -9.3390      2.00000
     26      -9.3363      2.00000
     27      -9.2820      2.00000
     28      -9.1925      2.00000
     29      -9.1354      2.00000
     30      -9.0185      2.00000
     31      -9.0032      2.00000
     32      -9.0007      2.00000
     33      -8.8705      2.00000
     34      -8.8329      2.00000
     35      -8.8070      2.00000
     36      -8.7990      2.00000
     37      -8.7756      2.00000
     38      -8.7667      2.00000
     39      -8.7626      2.00000
     40      -8.7334      2.00000
     41      -8.6631      2.00000
     42      -8.6474      2.00000
     43      -8.6367      2.00000
     44      -8.6001      2.00000
     45      -8.5088      2.00000
     46      -8.4433      2.00000
     47      -8.3534      2.00000
     48      -8.3291      2.00000
     49       0.9312      2.00000
     50       1.0216      2.00000
     51       1.0239      2.00000
     52       1.0967      2.00000
     53       1.1338      2.00000
     54       1.1913      2.00000
     55       1.2257      2.00000
     56       1.4541      2.00000
     57       1.4831      2.00000
     58       1.4899      2.00000
     59       1.5001      2.00000
     60       1.5446      2.00000
     61       1.6177      2.00000
     62       1.6330      2.00000
     63       1.7025      2.00000
     64       1.7444      2.00000
     65       1.7604      2.00000
     66       1.8501      2.00000
     67       2.0292      2.00000
     68       2.1454      2.00000
     69       2.2227      2.00000
     70       2.2379      2.00000
     71       2.2581      2.00000
     72       2.3528      2.00000
     73       2.4478      2.00000
     74       2.4989      2.00000
     75       2.5320      2.00000
     76       2.6576      2.00000
     77       2.7296      2.00000
     78       2.7324      2.00000
     79       2.8280      2.00000
     80       2.8838      2.00000
     81       2.8903      2.00000
     82       2.8963      2.00000
     83       2.9018      2.00000
     84       2.9994      2.00000
     85       3.0816      2.00000
     86       3.1205      2.00000
     87       3.1797      2.00000
     88       3.2073      2.00000
     89       3.2164      2.00000
     90       3.2181      2.00000
     91       3.2866      2.00000
     92       3.3129      2.00000
     93       3.4135      2.00000
     94       3.5228      2.00000
     95       3.6945      2.00000
     96       3.8141      2.00000
     97       3.8777      2.00000
     98       4.0381      2.00000
     99       4.0578      2.00000
    100       4.0580      2.00000
    101       4.2170      2.00000
    102       4.2477      2.00000
    103       4.2763      2.00000
    104       4.2904      2.00000
    105       4.4342      2.00000
    106       4.5069      2.00000
    107       4.6780      2.00000
    108       4.6877      2.00000
    109       4.7694      2.00000
    110       4.8201      2.00000
    111       4.8479      2.00000
    112       4.9137      2.00000
    113       4.9799      2.00000
    114       5.0026      2.00000
    115       5.0264      2.00000
    116       5.0457      2.00000
    117       5.0928      2.00000
    118       5.1056      2.00000
    119       5.1412      2.00000
    120       5.3060      2.00000
    121       5.3290      2.00000
    122       5.3373      2.00000
    123       5.3666      2.00000
    124       5.4040      2.00000
    125       5.4052      2.00000
    126       5.4610      2.00000
    127       5.5289      2.00000
    128       5.5754      2.00000
    129       5.7103      2.00000
    130       5.7452      2.00000
    131       5.8645      2.00000
    132       5.8746      2.00000
    133       5.9388      2.00000
    134       5.9422      2.00000
    135       6.0856      2.00000
    136       6.1204      2.00000
    137       6.1224      2.00000
    138       6.1678      2.00000
    139       6.1799      2.00000
    140       6.2641      2.00000
    141       6.2940      2.00000
    142       6.3056      2.00000
    143       6.3550      2.00000
    144       6.3574      2.00000
    145       6.3750      2.00000
    146       6.4033      2.00000
    147       6.4206      2.00000
    148       6.4338      2.00000
    149       6.4812      2.00000
    150       6.5526      2.00000
    151       6.6252      2.00000
    152       6.6518      2.00000
    153       6.6600      2.00000
    154       6.6744      2.00000
    155       6.7049      2.00000
    156       6.7069      2.00000
    157       6.8154      2.00000
    158       6.8205      2.00000
    159       6.9183      2.00000
[...]
     0.000000000  9.486259711  0.000000000     0.000000000  0.105415625  0.000000000
     0.000000000  0.000000000  6.742060197     0.000000000  0.000000000  0.148322615

  length of vectors
     9.224122006  9.486259711  6.742060197     0.108411402  0.105415625  0.148322615


 FORCES acting on ions
    electron-ion (+dipol)            ewald-force                    non-local-force                 convergence-correction
 -----------------------------------------------------------------------------------------------
   0.372E+01 -.327E+01 0.179E+02   -.357E+01 0.765E+00 -.171E+02   -.167E+00 0.280E+01 -.101E+01   -.389E-04 0.314E-05 0.309E-04
   0.372E+01 -.327E+01 0.179E+02   -.357E+01 0.765E+00 -.171E+02   -.167E+00 0.280E+01 -.101E+01   -.389E-04 0.643E-05 0.307E-04
   0.372E+01 -.327E+01 0.179E+02   -.357E+01 0.765E+00 -.171E+02   -.167E+00 0.280E+01 -.101E+01   -.406E-04 0.314E-05 0.308E-04
   0.372E+01 -.327E+01 0.179E+02   -.357E+01 0.765E+00 -.171E+02   -.167E+00 0.280E+01 -.101E+01   -.406E-04 0.644E-05 0.306E-04
   0.372E+01 0.327E+01 -.179E+02   -.357E+01 -.765E+00 0.171E+02   -.167E+00 -.280E+01 0.101E+01   -.389E-04 -.475E-05 -.302E-04
   0.372E+01 0.327E+01 -.179E+02   -.357E+01 -.765E+00 0.171E+02   -.167E+00 -.280E+01 0.101E+01   -.389E-04 -.482E-05 -.303E-04
   0.372E+01 0.327E+01 -.179E+02   -.357E+01 -.765E+00 0.171E+02   -.167E+00 -.280E+01 0.101E+01   -.406E-04 -.475E-05 -.301E-04
   0.372E+01 0.327E+01 -.179E+02   -.357E+01 -.765E+00 0.171E+02   -.167E+00 -.280E+01 0.101E+01   -.406E-04 -.483E-05 -.302E-04
   -.372E+01 -.327E+01 -.179E+02   0.357E+01 0.765E+00 0.171E+02   0.167E+00 0.280E+01 0.101E+01   0.406E-04 0.529E-05 -.310E-04
   -.372E+01 -.327E+01 -.179E+02   0.357E+01 0.765E+00 0.171E+02   0.167E+00 0.280E+01 0.101E+01   0.406E-04 0.432E-05 -.310E-04
   -.372E+01 -.327E+01 -.179E+02   0.357E+01 0.765E+00 0.171E+02   0.167E+00 0.280E+01 0.101E+01   0.389E-04 0.529E-05 -.311E-04
   -.372E+01 -.327E+01 -.179E+02   0.357E+01 0.765E+00 0.171E+02   0.167E+00 0.280E+01 0.101E+01   0.389E-04 0.431E-05 -.311E-04
   -.372E+01 0.327E+01 0.179E+02   0.357E+01 -.765E+00 -.171E+02   0.167E+00 -.280E+01 -.101E+01   0.406E-04 -.311E-05 0.306E-04
   -.372E+01 0.327E+01 0.179E+02   0.357E+01 -.765E+00 -.171E+02   0.167E+00 -.280E+01 -.101E+01   0.406E-04 -.650E-05 0.304E-04
   -.372E+01 0.327E+01 0.179E+02   0.357E+01 -.765E+00 -.171E+02   0.167E+00 -.280E+01 -.101E+01   0.389E-04 -.311E-05 0.306E-04
   -.372E+01 0.327E+01 0.179E+02   0.357E+01 -.765E+00 -.171E+02   0.167E+00 -.280E+01 -.101E+01   0.389E-04 -.649E-05 0.304E-04
   -.372E+01 0.327E+01 -.179E+02   0.357E+01 -.765E+00 0.171E+02   0.167E+00 -.280E+01 0.101E+01   0.398E-04 -.311E-05 -.303E-04
   -.372E+01 0.327E+01 -.179E+02   0.357E+01 -.765E+00 0.171E+02   0.167E+00 -.280E+01 0.101E+01   0.398E-04 -.649E-05 -.301E-04
   -.372E+01 0.327E+01 -.179E+02   0.357E+01 -.765E+00 0.171E+02   0.167E+00 -.280E+01 0.101E+01   0.397E-04 -.311E-05 -.303E-04
   -.372E+01 0.327E+01 -.179E+02   0.357E+01 -.765E+00 0.171E+02   0.167E+00 -.280E+01 0.101E+01   0.397E-04 -.649E-05 -.301E-04
   -.372E+01 -.327E+01 0.179E+02   0.357E+01 0.765E+00 -.171E+02   0.167E+00 0.280E+01 -.101E+01   0.398E-04 0.529E-05 0.307E-04
   -.372E+01 -.327E+01 0.179E+02   0.357E+01 0.765E+00 -.171E+02   0.167E+00 0.280E+01 -.101E+01   0.398E-04 0.431E-05 0.308E-04
   -.372E+01 -.327E+01 0.179E+02   0.357E+01 0.765E+00 -.171E+02   0.167E+00 0.280E+01 -.101E+01   0.397E-04 0.529E-05 0.308E-04
   -.372E+01 -.327E+01 0.179E+02   0.357E+01 0.765E+00 -.171E+02   0.167E+00 0.280E+01 -.101E+01   0.397E-04 0.431E-05 0.308E-04
   0.372E+01 0.327E+01 0.179E+02   -.357E+01 -.765E+00 -.171E+02   -.167E+00 -.280E+01 -.101E+01   -.396E-04 -.475E-05 0.305E-04
   0.372E+01 0.327E+01 0.179E+02   -.357E+01 -.765E+00 -.171E+02   -.167E+00 -.280E+01 -.101E+01   -.396E-04 -.482E-05 0.305E-04
   0.372E+01 0.327E+01 0.179E+02   -.357E+01 -.765E+00 -.171E+02   -.167E+00 -.280E+01 -.101E+01   -.398E-04 -.475E-05 0.304E-04
   0.372E+01 0.327E+01 0.179E+02   -.357E+01 -.765E+00 -.171E+02   -.167E+00 -.280E+01 -.101E+01   -.398E-04 -.483E-05 0.305E-04
   0.372E+01 -.327E+01 -.179E+02   -.357E+01 0.765E+00 0.171E+02   -.167E+00 0.280E+01 0.101E+01   -.396E-04 0.314E-05 -.312E-04
   0.372E+01 -.327E+01 -.179E+02   -.357E+01 0.765E+00 0.171E+02   -.167E+00 0.280E+01 0.101E+01   -.396E-04 0.643E-05 -.310E-04
   0.372E+01 -.327E+01 -.179E+02   -.357E+01 0.765E+00 0.171E+02   -.167E+00 0.280E+01 0.101E+01   -.398E-04 0.314E-05 -.311E-04
   0.372E+01 -.327E+01 -.179E+02   -.357E+01 0.765E+00 0.171E+02   -.167E+00 0.280E+01 0.101E+01   -.398E-04 0.644E-05 -.309E-04
   0.727E+01 0.356E+01 -.198E+02   -.592E+01 -.281E+01 0.211E+02   -.125E+01 -.661E+00 -.112E+01   -.116E-03 0.358E-04 -.497E-03
   0.727E+01 0.356E+01 -.198E+02   -.592E+01 -.281E+01 0.211E+02   -.125E+01 -.661E+00 -.112E+01   -.116E-03 0.431E-04 -.498E-03
   0.727E+01 0.356E+01 -.198E+02   -.592E+01 -.281E+01 0.211E+02   -.125E+01 -.661E+00 -.112E+01   -.119E-03 0.358E-04 -.497E-03
   0.727E+01 0.356E+01 -.198E+02   -.592E+01 -.281E+01 0.211E+02   -.125E+01 -.661E+00 -.112E+01   -.119E-03 0.431E-04 -.497E-03
   0.727E+01 -.356E+01 0.198E+02   -.592E+01 0.281E+01 -.211E+02   -.125E+01 0.661E+00 0.112E+01   -.116E-03 -.399E-04 0.499E-03
   0.727E+01 -.356E+01 0.198E+02   -.592E+01 0.281E+01 -.211E+02   -.125E+01 0.661E+00 0.112E+01   -.116E-03 -.390E-04 0.498E-03
   0.727E+01 -.356E+01 0.198E+02   -.592E+01 0.281E+01 -.211E+02   -.125E+01 0.661E+00 0.112E+01   -.119E-03 -.399E-04 0.498E-03
   0.727E+01 -.356E+01 0.198E+02   -.592E+01 0.281E+01 -.211E+02   -.125E+01 0.661E+00 0.112E+01   -.119E-03 -.391E-04 0.498E-03
   -.727E+01 0.356E+01 0.198E+02   0.592E+01 -.281E+01 -.211E+02   0.125E+01 -.661E+00 0.112E+01   0.119E-03 0.411E-04 0.498E-03
   -.727E+01 0.356E+01 0.198E+02   0.592E+01 -.281E+01 -.211E+02   0.125E+01 -.661E+00 0.112E+01   0.119E-03 0.379E-04 0.498E-03
   -.727E+01 0.356E+01 0.198E+02   0.592E+01 -.281E+01 -.211E+02   0.125E+01 -.661E+00 0.112E+01   0.115E-03 0.411E-04 0.498E-03
   -.727E+01 0.356E+01 0.198E+02   0.592E+01 -.281E+01 -.211E+02   0.125E+01 -.661E+00 0.112E+01   0.115E-03 0.379E-04 0.498E-03
   -.727E+01 -.356E+01 -.198E+02   0.592E+01 0.281E+01 0.211E+02   0.125E+01 0.661E+00 -.112E+01   0.119E-03 -.354E-04 -.499E-03
   -.727E+01 -.356E+01 -.198E+02   0.592E+01 0.281E+01 0.211E+02   0.125E+01 0.661E+00 -.112E+01   0.119E-03 -.436E-04 -.499E-03
   -.727E+01 -.356E+01 -.198E+02   0.592E+01 0.281E+01 0.211E+02   0.125E+01 0.661E+00 -.112E+01   0.115E-03 -.354E-04 -.499E-03
   -.727E+01 -.356E+01 -.198E+02   0.592E+01 0.281E+01 0.211E+02   0.125E+01 0.661E+00 -.112E+01   0.115E-03 -.436E-04 -.500E-03
   -.727E+01 -.356E+01 0.198E+02   0.592E+01 0.281E+01 -.211E+02   0.125E+01 0.661E+00 0.112E+01   0.117E-03 -.354E-04 0.498E-03
   -.727E+01 -.356E+01 0.198E+02   0.592E+01 0.281E+01 -.211E+02   0.125E+01 0.661E+00 0.112E+01   0.117E-03 -.436E-04 0.498E-03
   -.727E+01 -.356E+01 0.198E+02   0.592E+01 0.281E+01 -.211E+02   0.125E+01 0.661E+00 0.112E+01   0.118E-03 -.354E-04 0.498E-03
   -.727E+01 -.356E+01 0.198E+02   0.592E+01 0.281E+01 -.211E+02   0.125E+01 0.661E+00 0.112E+01   0.118E-03 -.436E-04 0.499E-03
   -.727E+01 0.356E+01 -.198E+02   0.592E+01 -.281E+01 0.211E+02   0.125E+01 -.661E+00 -.112E+01   0.117E-03 0.411E-04 -.497E-03
   -.727E+01 0.356E+01 -.198E+02   0.592E+01 -.281E+01 0.211E+02   0.125E+01 -.661E+00 -.112E+01   0.117E-03 0.379E-04 -.497E-03
   -.727E+01 0.356E+01 -.198E+02   0.592E+01 -.281E+01 0.211E+02   0.125E+01 -.661E+00 -.112E+01   0.118E-03 0.411E-04 -.497E-03
   -.727E+01 0.356E+01 -.198E+02   0.592E+01 -.281E+01 0.211E+02   0.125E+01 -.661E+00 -.112E+01   0.118E-03 0.379E-04 -.497E-03
   0.727E+01 -.356E+01 -.198E+02   -.592E+01 0.281E+01 0.211E+02   -.125E+01 0.661E+00 -.112E+01   -.116E-03 -.399E-04 -.499E-03
   0.727E+01 -.356E+01 -.198E+02   -.592E+01 0.281E+01 0.211E+02   -.125E+01 0.661E+00 -.112E+01   -.116E-03 -.390E-04 -.499E-03
   0.727E+01 -.356E+01 -.198E+02   -.592E+01 0.281E+01 0.211E+02   -.125E+01 0.661E+00 -.112E+01   -.119E-03 -.399E-04 -.499E-03
   0.727E+01 -.356E+01 -.198E+02   -.592E+01 0.281E+01 0.211E+02   -.125E+01 0.661E+00 -.112E+01   -.119E-03 -.391E-04 -.499E-03
   0.727E+01 0.356E+01 0.198E+02   -.592E+01 -.281E+01 -.211E+02   -.125E+01 -.661E+00 0.112E+01   -.116E-03 0.358E-04 0.498E-03
   0.727E+01 0.356E+01 0.198E+02   -.592E+01 -.281E+01 -.211E+02   -.125E+01 -.661E+00 0.112E+01   -.116E-03 0.431E-04 0.498E-03
   0.727E+01 0.356E+01 0.198E+02   -.592E+01 -.281E+01 -.211E+02   -.125E+01 -.661E+00 0.112E+01   -.119E-03 0.358E-04 0.498E-03
   0.727E+01 0.356E+01 0.198E+02   -.592E+01 -.281E+01 -.211E+02   -.125E+01 -.661E+00 0.112E+01   -.119E-03 0.431E-04 0.498E-03
   -.216E+02 -.447E-04 -.332E-04   0.227E+02 0.126E-04 0.430E-04   -.997E+00 0.436E-19 0.225E-19   -.129E-03 -.237E-05 -.133E-05
   -.216E+02 -.423E-04 -.287E-04   0.227E+02 -.450E-05 0.511E-05   -.997E+00 -.299E-19 0.251E-19   -.129E-03 0.236E-05 -.674E-06
   -.216E+02 -.447E-04 -.332E-04   0.227E+02 0.126E-04 0.430E-04   -.997E+00 -.147E-18 0.320E-19   -.132E-03 -.237E-05 -.133E-05
   -.216E+02 -.423E-04 -.287E-04   0.227E+02 -.450E-05 0.511E-05   -.997E+00 -.841E-19 0.235E-19   -.132E-03 0.236E-05 -.674E-06
   0.216E+02 -.435E-04 -.408E-04   -.227E+02 -.152E-05 -.199E-04   0.997E+00 0.851E-19 0.635E-19   0.132E-03 0.325E-05 0.720E-06
   0.216E+02 -.453E-04 -.362E-04   -.227E+02 0.166E-04 -.456E-04   0.997E+00 -.365E-19 0.153E-19   0.132E-03 -.325E-05 0.131E-05
   0.216E+02 -.435E-04 -.408E-04   -.227E+02 -.152E-05 -.199E-04   0.997E+00 0.868E-19 0.178E-19   0.129E-03 0.325E-05 0.720E-06
   0.216E+02 -.453E-04 -.362E-04   -.227E+02 0.166E-04 -.456E-04   0.997E+00 0.719E-19 0.121E-18   0.129E-03 -.325E-05 0.131E-05
   0.216E+02 -.387E-04 -.509E-04   -.227E+02 -.419E-05 0.126E-04   0.997E+00 0.118E-18 0.562E-19   0.130E-03 0.325E-05 -.706E-06
   0.216E+02 -.405E-04 -.554E-04   -.227E+02 0.139E-04 0.382E-04   0.997E+00 0.976E-19 0.548E-19   0.130E-03 -.325E-05 -.130E-05
   0.216E+02 -.387E-04 -.509E-04   -.227E+02 -.419E-05 0.126E-04   0.997E+00 0.595E-19 0.509E-19   0.132E-03 0.325E-05 -.706E-06
   0.216E+02 -.405E-04 -.554E-04   -.227E+02 0.139E-04 0.382E-04   0.997E+00 0.695E-19 0.600E-19   0.132E-03 -.325E-05 -.130E-05
   -.216E+02 -.420E-04 -.140E-04   0.227E+02 0.152E-04 -.503E-04   -.997E+00 -.296E-19 -.487E-19   -.130E-03 -.237E-05 0.134E-05
   -.216E+02 -.396E-04 -.185E-04   0.227E+02 -.184E-05 -.125E-04   -.997E+00 -.876E-19 -.728E-19   -.130E-03 0.236E-05 0.688E-06
   -.216E+02 -.420E-04 -.140E-04   0.227E+02 0.152E-04 -.503E-04   -.997E+00 0.329E-19 -.105E-18   -.132E-03 -.237E-05 0.134E-05
   -.216E+02 -.396E-04 -.185E-04   0.227E+02 -.184E-05 -.125E-04   -.997E+00 -.205E-19 0.354E-19   -.132E-03 0.236E-05 0.688E-06
 -----------------------------------------------------------------------------------------------
   0.469E-02 -.221E-02 -.747E-03   0.639E-13 -.664E-13 -.904E-13   0.155E-14 -.511E-14 -.222E-15   0.118E-06 -.233E-07 0.918E-08


 POSITION                                       TOTAL-FORCE (eV/Angst)
 -----------------------------------------------------------------------------------
      1.16363      0.14891      2.62933        -0.010590      0.300796     -0.209353
      1.16363      4.89204      2.62933        -0.010590      0.300796     -0.209353
      5.77569      0.14891      2.62933        -0.010590      0.300796     -0.209353
      5.77569      4.89204      2.62933        -0.010590      0.300796     -0.209353
      1.16363      2.22266      4.11273        -0.010590     -0.300796      0.209353
      1.16363      6.96579      4.11273        -0.010590     -0.300796      0.209353
      5.77569      2.22266      4.11273        -0.010590     -0.300796      0.209353
      5.77569      6.96579      4.11273        -0.010590     -0.300796      0.209353
      1.14240      2.52047      0.74170         0.010590      0.300796      0.209353
      1.14240      7.26360      0.74170         0.010590      0.300796      0.209353
      5.75446      2.52047      0.74170         0.010590      0.300796      0.209353
      5.75446      7.26360      0.74170         0.010590      0.300796      0.209353
      1.14240      4.59422      6.00036         0.010590     -0.300796     -0.209353
      1.14240      9.33735      6.00036         0.010590     -0.300796     -0.209353
      5.75446      4.59422      6.00036         0.010590     -0.300796     -0.209353
      5.75446      9.33735      6.00036         0.010590     -0.300796     -0.209353
      3.44843      4.59422      4.11273         0.010590     -0.300796      0.209353
      3.44843      9.33735      4.11273         0.010590     -0.300796      0.209353
      8.06049      4.59422      4.11273         0.010590     -0.300796      0.209353
      8.06049      9.33735      4.11273         0.010590     -0.300796      0.209353
      3.44843      2.52047      2.62933         0.010590      0.300796     -0.209353
      3.44843      7.26360      2.62933         0.010590      0.300796     -0.209353
      8.06049      2.52047      2.62933         0.010590      0.300796     -0.209353
      8.06049      7.26360      2.62933         0.010590      0.300796     -0.209353
      3.46966      2.22266      6.00036        -0.010590     -0.300796     -0.209353
      3.46966      6.96579      6.00036        -0.010590     -0.300796     -0.209353
      8.08172      2.22266      6.00036        -0.010590     -0.300796     -0.209353
      8.08172      6.96579      6.00036        -0.010590     -0.300796     -0.209353
      3.46966      0.14891      0.74170        -0.010590      0.300796      0.209353
      3.46966      4.89204      0.74170        -0.010590      0.300796      0.209353
      8.08172      0.14891      0.74170        -0.010590      0.300796      0.209353
      8.08172      4.89204      0.74170        -0.010590      0.300796      0.209353
      0.49383      0.48565      4.41031         0.100453      0.084502      0.132878
      0.49383      5.22878      4.41031         0.100453      0.084502      0.132878
      5.10589      0.48565      4.41031         0.100453      0.084502      0.132878
      5.10589      5.22878      4.41031         0.100453      0.084502      0.132878
      0.49383      1.88591      2.33175         0.100453     -0.084502     -0.132878
      0.49383      6.62904      2.33175         0.100453     -0.084502     -0.132878
      5.10589      1.88591      2.33175         0.100453     -0.084502     -0.132878
      5.10589      6.62904      2.33175         0.100453     -0.084502     -0.132878
      1.81221      2.85722      5.70278        -0.100453      0.084502     -0.132878
      1.81221      7.60035      5.70278        -0.100453      0.084502     -0.132878
      6.42427      2.85722      5.70278        -0.100453      0.084502     -0.132878
      6.42427      7.60035      5.70278        -0.100453      0.084502     -0.132878
      1.81221      4.25748      1.03928        -0.100453     -0.084502      0.132878
      1.81221      9.00061      1.03928        -0.100453     -0.084502      0.132878
      6.42427      4.25748      1.03928        -0.100453     -0.084502      0.132878
      6.42427      9.00061      1.03928        -0.100453     -0.084502      0.132878
      4.11824      4.25748      2.33175        -0.100453     -0.084502     -0.132878
      4.11824      9.00061      2.33175        -0.100453     -0.084502     -0.132878
      8.73030      4.25748      2.33175        -0.100453     -0.084502     -0.132878
      8.73030      9.00061      2.33175        -0.100453     -0.084502     -0.132878
      4.11824      2.85722      4.41031        -0.100453      0.084502      0.132878
      4.11824      7.60035      4.41031        -0.100453      0.084502      0.132878
      8.73030      2.85722      4.41031        -0.100453      0.084502      0.132878
      8.73030      7.60035      4.41031        -0.100453      0.084502      0.132878
      2.79986      1.88591      1.03928         0.100453     -0.084502      0.132878
      2.79986      6.62904      1.03928         0.100453     -0.084502      0.132878
      7.41192      1.88591      1.03928         0.100453     -0.084502      0.132878
      7.41192      6.62904      1.03928         0.100453     -0.084502      0.132878
      2.79986      0.48565      5.70278         0.100453      0.084502     -0.132878
      2.79986      5.22878      5.70278         0.100453      0.084502     -0.132878
      7.41192      0.48565      5.70278         0.100453      0.084502     -0.132878
      7.41192      5.22878      5.70278         0.100453      0.084502     -0.132878
      0.23147      1.18578      0.00000         0.137184      0.000000      0.000000
      0.23147      5.92891      0.00000         0.137184      0.000000      0.000000
      4.84353      1.18578      0.00000         0.137184      0.000000      0.000000
      4.84353      5.92891      0.00000         0.137184      0.000000      0.000000
      2.07456      3.55735      3.37103        -0.137184      0.000000      0.000000
      2.07456      8.30048      3.37103        -0.137184      0.000000      0.000000
      6.68662      3.55735      3.37103        -0.137184      0.000000      0.000000
      6.68662      8.30048      3.37103        -0.137184      0.000000      0.000000
      4.38059      3.55735      0.00000        -0.137184      0.000000      0.000000
      4.38059      8.30048      0.00000        -0.137184      0.000000      0.000000
      8.99265      3.55735      0.00000        -0.137184      0.000000      0.000000
      8.99265      8.30048      0.00000        -0.137184      0.000000      0.000000
      2.53750      1.18578      3.37103         0.137184      0.000000      0.000000
      2.53750      5.92891      3.37103         0.137184      0.000000      0.000000
      7.14956      1.18578      3.37103         0.137184      0.000000      0.000000
      7.14956      5.92891      3.37103         0.137184      0.000000      0.000000
 -----------------------------------------------------------------------------------
    total drift:                                0.004695     -0.002213     -0.000747


--------------------------------------------------------------------------------------------------------



  FREE ENERGIE OF THE ION-ELECTRON SYSTEM (eV)
  ---------------------------------------------------
  free  energy   TOTEN  =      -579.41374882 eV

  energy  without entropy=     -579.41430409  energy(sigma->0) =     -579.41393391



--------------------------------------------------------------------------------------------------------


    POTLOK:  cpu time      0.3275: real time      0.3465


--------------------------------------------------------------------------------------------------------


 writing wavefunctions
     LOOP+:  cpu time    829.5209: real time    847.1727
    4ORBIT:  cpu time      0.0000: real time      0.0000

 total amount of memory used by VASP MPI-rank0   443531. kBytes
=======================================================================

   base      :      30000. kBytes
   nonlr-proj:       9572. kBytes
   fftplans  :      23216. kBytes
   grid      :      41250. kBytes
   one-center:        245. kBytes
   wavefun   :     339248. kBytes

  
  
 General timing and accounting informations for this job:
 ========================================================
  
                  Total CPU time used (sec):      838.766
                            User time (sec):      835.674
                          System time (sec):        3.092
                         Elapsed time (sec):      906.909
  
                   Maximum memory used (kb):      630340.
                   Average memory used (kb):          N/A
  
                          Minor page faults:       337854
                          Major page faults:            1
                 Voluntary context switches:         1305
