 vasp.6.3.0 20Jan22 (build Jul  1 2024 12:21:46) complex                         
 executed on             LinuxGNU date 2024.10.21  12:38:21
 running    1 mpi-ranks, with    1 threads/rank
 distrk:  each k-point on    1 cores,    1 groups
 distr:  one band on NCORE=   1 cores,    1 groups


--------------------------------------------------------------------------------------------------------


 INCAR:
   SYSTEM = Alumina_orthorombic_cell_under_strain
   ISTART = 0
   ICHARG = 2
   ENCUT = 400
   ALGO = Normal
   PREC = Normal
   ISPIN = 1
   LWAVE = T             (Write WAVECAR)
   LCHARG = T             (Write CHGCAR)
   NPAR = 1
   EDIFF = 1E-6
   NSW = 0
   NELM = 100
   POTIM = 0.5
   IBRION = -1
   ISMEAR = 1
   SIGMA = 0.026
   EDIFFG = -0.001
   ISIF = 2
   LREAL = Auto

 POTCAR:    PAW_PBE Al 04Jan2001                  
 POTCAR:    PAW_PBE O 08Apr2002                   
 POTCAR:    PAW_PBE Al 04Jan2001                  
   SHA256 =  17880443556af62b473fe41b62a467bd001ad55d2cabe504a3f22e34d4e9db96 Al/POTCAR             
   COPYR  = (c) Copyright 04Jan2001 Georg Kresse                                                    
   COPYR  = This file is part of the software VASP. Any use, copying, and all other rights are regul
   COPYR  = If you do not have a valid VASP license, you may not use, copy or distribute this file. 
   VRHFIN =Al: s2p1                                                                                 
   LEXCH  = PE                                                                                      
   EATOM  =    53.5387 eV,    3.9350 Ry                                                             
                                                                                                    
   TITEL  = PAW_PBE Al 04Jan2001                                                                    
   LULTRA =        F    use ultrasoft PP ?                                                          
   IUNSCR =        1    unscreen: 0-lin 1-nonlin 2-no                                               
   RPACOR =    1.500    partial core radius                                                         
   POMASS =   26.981; ZVAL   =    3.000    mass and valenz                                          
   RCORE  =    1.900    outmost cutoff radius                                                       
   RWIGS  =    2.650; RWIGS  =    1.402    wigner-seitz radius (au A)                               
   ENMAX  =  240.300; ENMIN  =  180.225 eV                                                          
   ICORE  =        2    local potential                                                             
   LCOR   =        T    correct aug charges                                                         
   LPAW   =        T    paw PP                                                                      
   EAUG   =  291.052                                                                                
   DEXC   =    0.000                                                                                
   RMAX   =    1.939    core radius for proj-oper                                                   
   RAUG   =    1.300    factor for augmentation sphere                                              
   RDEP   =    1.966    radius for radial grids                                                     
   RDEPT  =    1.856    core radius for aug-charge                                                  
                                                                                                    
   Atomic configuration                                                                             
    6 entries                                                                                       
     n  l   j            E        occ.                                                              
     1  0  0.50     -1511.1048   2.0000                                                             
     2  0  0.50      -108.1629   2.0000                                                             
     2  1  1.50       -69.6402   6.0000                                                             
     3  0  0.50        -7.7528   2.0000                                                             
     3  1  1.50        -2.7121   1.0000                                                             
     3  2  2.50        -2.7212   0.0000                                                             
   Description                                                                                      
     l       E           TYP  RCUT    TYP  RCUT                                                     
     0     -7.7528455     23  1.900                                                                 
     0     -3.3096929     23  1.900                                                                 
     1     -2.7120682     23  1.900                                                                 
     1     13.6058260     23  1.900                                                                 
     2     -2.7211652      7  1.900                                                                 
  local pseudopotential read in
  partial core-charges read in
  partial kinetic energy density read in
  atomic valenz-charges read in
  non local Contribution for L=           0  read in
    real space projection operators read in
  non local Contribution for L=           0  read in
    real space projection operators read in
  non local Contribution for L=           1  read in
    real space projection operators read in
  non local Contribution for L=           1  read in
    real space projection operators read in
    PAW grid and wavefunctions read in

   number of l-projection  operators is LMAX  =           4
   number of lm-projection operators is LMMAX =           8

 POTCAR:    PAW_PBE O 08Apr2002                   
   SHA256 =  818f92134a0a090dccd8ba1447fa70422a3b330e708bb4f08108d8ae51209ddf O/POTCAR              
   COPYR  = (c) Copyright 08Apr2002 Georg Kresse                                                    
   COPYR  = This file is part of the software VASP. Any use, copying, and all other rights are regul
   COPYR  = If you do not have a valid VASP license, you may not use, copy or distribute this file. 
   VRHFIN =O: s2p4                                                                                  
   LEXCH  = PE                                                                                      
   EATOM  =   432.3788 eV,   31.7789 Ry                                                             
                                                                                                    
   TITEL  = PAW_PBE O 08Apr2002                                                                     
   LULTRA =        F    use ultrasoft PP ?                                                          
   IUNSCR =        1    unscreen: 0-lin 1-nonlin 2-no                                               
   RPACOR =    1.200    partial core radius                                                         
   POMASS =   16.000; ZVAL   =    6.000    mass and valenz                                          
   RCORE  =    1.520    outmost cutoff radius                                                       
   RWIGS  =    1.550; RWIGS  =    0.820    wigner-seitz radius (au A)                               
   ENMAX  =  400.000; ENMIN  =  300.000 eV                                                          
   ICORE  =        2    local potential                                                             
   LCOR   =        T    correct aug charges                                                         
   LPAW   =        T    paw PP                                                                      
   EAUG   =  605.392                                                                                
   DEXC   =    0.000                                                                                
   RMAX   =    1.553    core radius for proj-oper                                                   
   RAUG   =    1.300    factor for augmentation sphere                                              
   RDEP   =    1.550    radius for radial grids                                                     
   RDEPT  =    1.329    core radius for aug-charge                                                  
                                                                                                    
   Atomic configuration                                                                             
    4 entries                                                                                       
     n  l   j            E        occ.                                                              
     1  0  0.50      -514.6923   2.0000                                                             
     2  0  0.50       -23.9615   2.0000                                                             
     2  1  0.50        -9.0305   4.0000                                                             
     3  2  1.50        -9.5241   0.0000                                                             
   Description                                                                                      
     l       E           TYP  RCUT    TYP  RCUT                                                     
     0    -23.9615318     23  1.200                                                                 
     0     -9.5240782     23  1.200                                                                 
     1     -9.0304911     23  1.520                                                                 
     1      8.1634956     23  1.520                                                                 
     2     -9.5240782      7  1.500                                                                 
  local pseudopotential read in
  partial core-charges read in
  partial kinetic energy density read in
  kinetic energy density of atom read in
  atomic valenz-charges read in
  non local Contribution for L=           0  read in
    real space projection operators read in
  non local Contribution for L=           0  read in
    real space projection operators read in
  non local Contribution for L=           1  read in
    real space projection operators read in
  non local Contribution for L=           1  read in
    real space projection operators read in
    PAW grid and wavefunctions read in

   number of l-projection  operators is LMAX  =           4
   number of lm-projection operators is LMMAX =           8

 Optimization of the real space projectors (new method)

 maximal supplied QI-value         = 19.84
 optimisation between [QCUT,QGAM] = [ 10.12, 20.44] = [ 28.68,116.96] Ry 
 Optimized for a Real-space Cutoff    1.23 Angstroem

   l    n(q)    QCUT    max X(q) W(low)/X(q) W(high)/X(q)  e(spline) 
   0      7    10.119   176.870    0.49E-04    0.18E-03    0.39E-07
   0      7    10.119   105.762    0.46E-04    0.18E-03    0.38E-07
   1      7    10.119    55.370    0.30E-03    0.37E-03    0.12E-06
   1      7    10.119    20.208    0.27E-03    0.35E-03    0.11E-06
 Optimization of the real space projectors (new method)

 maximal supplied QI-value         = 24.76
 optimisation between [QCUT,QGAM] = [ 10.15, 20.30] = [ 28.85,115.39] Ry 
 Optimized for a Real-space Cutoff    1.38 Angstroem

   l    n(q)    QCUT    max X(q) W(low)/X(q) W(high)/X(q)  e(spline) 
   0      8    10.150    20.381    0.22E-03    0.32E-03    0.29E-06
   0      8    10.150    15.268    0.23E-03    0.35E-03    0.30E-06
   1      8    10.150     5.964    0.46E-03    0.53E-03    0.21E-06
   1      8    10.150     5.382    0.38E-03    0.45E-03    0.19E-06
  PAW_PBE Al 04Jan2001                  :
 energy of atom  1       EATOM=  -53.5387
 kinetic energy error for atom=    0.0005 (will be added to EATOM!!)
  PAW_PBE O 08Apr2002                   :
 energy of atom  2       EATOM= -432.3788
 kinetic energy error for atom=    0.1156 (will be added to EATOM!!)


 POSCAR:    Al  O
  positions in direct lattice
  No initial velocities read in
 exchange correlation table for  LEXCH =        8
   RHO(1)=    0.500       N(1)  =     2000
   RHO(2)=  100.500       N(2)  =     4000



--------------------------------------------------------------------------------------------------------


 ion  position               nearest neighbor table
   1  0.126  0.016  0.390-  70 1.70  52 1.72  46 1.75  77 1.80  37 1.81  33 1.85   5 2.44  18 2.63
                            20 2.66  31 2.86  29 2.86  10 2.90   9 2.90   6 2.93  22 3.16  21 3.16
   2  0.126  0.516  0.390-  69 1.70  51 1.72  45 1.75  78 1.80  38 1.81  34 1.85   6 2.44  17 2.63
                            19 2.66  32 2.86  30 2.86   9 2.90  10 2.90   5 2.93  21 3.16  22 3.16
   3  0.626  0.016  0.390-  72 1.70  50 1.72  48 1.75  79 1.80  39 1.81  35 1.85   7 2.44  20 2.63
                            18 2.66  29 2.86  31 2.86  12 2.90  11 2.90   8 2.93  24 3.16  23 3.16
   4  0.626  0.516  0.390-  71 1.70  49 1.72  47 1.75  80 1.80  40 1.81  36 1.85   8 2.44  19 2.63
                            17 2.66  30 2.86  32 2.86  11 2.90  12 2.90   7 2.93  23 3.16  24 3.16
   5  0.126  0.234  0.610-  69 1.70  55 1.72  41 1.75  77 1.80  33 1.81  37 1.85   1 2.44  21 2.63
                            23 2.66  27 2.86  25 2.86  13 2.90  14 2.90   2 2.93  17 3.16  18 3.16
   6  0.126  0.734  0.610-  70 1.70  56 1.72  42 1.75  78 1.80  34 1.81  38 1.85   2 2.44  22 2.63
                            24 2.66  28 2.86  26 2.86  14 2.90  13 2.90   1 2.93  18 3.16  17 3.16
   7  0.626  0.234  0.610-  71 1.70  53 1.72  43 1.75  79 1.80  35 1.81  39 1.85   3 2.44  23 2.63
                            21 2.66  25 2.86  27 2.86  15 2.90  16 2.90   4 2.93  19 3.16  20 3.16
   8  0.626  0.734  0.610-  72 1.70  54 1.72  44 1.75  80 1.80  36 1.81  40 1.85   4 2.44  24 2.63
                            22 2.66  26 2.86  28 2.86  16 2.90  15 2.90   3 2.93  20 3.16  19 3.16
   9  0.124  0.266  0.110-  65 1.70  57 1.72  37 1.75  75 1.80  45 1.81  41 1.85  13 2.44  27 2.63
                            25 2.66  21 2.86  23 2.86   2 2.90   1 2.90  14 2.93  32 3.16  31 3.16
  10  0.124  0.766  0.110-  66 1.70  58 1.72  38 1.75  76 1.80  46 1.81  42 1.85  14 2.44  28 2.63
                            26 2.66  22 2.86  24 2.86   1 2.90   2 2.90  13 2.93  31 3.16  32 3.16
  11  0.624  0.266  0.110-  67 1.70  59 1.72  39 1.75  73 1.80  47 1.81  43 1.85  15 2.44  25 2.63
                            27 2.66  23 2.86  21 2.86   4 2.90   3 2.90  16 2.93  30 3.16  29 3.16
  12  0.624  0.766  0.110-  68 1.70  60 1.72  40 1.75  74 1.80  48 1.81  44 1.85  16 2.44  26 2.63
                            28 2.66  24 2.86  22 2.86   3 2.90   4 2.90  15 2.93  29 3.16  30 3.16
  13  0.124  0.484  0.890-  66 1.70  62 1.72  34 1.75  75 1.80  41 1.81  45 1.85   9 2.44  32 2.63
                            30 2.66  17 2.86  19 2.86   5 2.90   6 2.90  10 2.93  27 3.16  28 3.16
  14  0.124  0.984  0.890-  65 1.70  61 1.72  33 1.75  76 1.80  42 1.81  46 1.85  10 2.44  31 2.63
                            29 2.66  18 2.86  20 2.86   6 2.90   5 2.90   9 2.93  28 3.16  27 3.16
  15  0.624  0.484  0.890-  68 1.70  64 1.72  36 1.75  73 1.80  43 1.81  47 1.85  11 2.44  30 2.63
                            32 2.66  19 2.86  17 2.86   7 2.90   8 2.90  12 2.93  25 3.16  26 3.16
  16  0.624  0.984  0.890-  67 1.70  63 1.72  35 1.75  74 1.80  44 1.81  48 1.85  12 2.44  29 2.63
                            31 2.66  20 2.86  18 2.86   8 2.90   7 2.90  11 2.93  26 3.16  25 3.16
  17  0.374  0.484  0.610-  78 1.70  36 1.72  62 1.75  69 1.80  53 1.81  49 1.85  21 2.44   2 2.63
                             4 2.66  13 2.86  15 2.86  25 2.90  26 2.90  22 2.93   5 3.16   6 3.16
  18  0.374  0.984  0.610-  77 1.70  35 1.72  61 1.75  70 1.80  54 1.81  50 1.85  22 2.44   1 2.63
                             3 2.66  14 2.86  16 2.86  26 2.90  25 2.90  21 2.93   6 3.16   5 3.16
  19  0.874  0.484  0.610-  80 1.70  34 1.72  64 1.75  71 1.80  55 1.81  51 1.85  23 2.44   4 2.63
                             2 2.66  15 2.86  13 2.86  27 2.90  28 2.90  24 2.93   7 3.16   8 3.16
  20  0.874  0.984  0.610-  79 1.70  33 1.72  63 1.75  72 1.80  56 1.81  52 1.85  24 2.44   3 2.63
                             1 2.66  16 2.86  14 2.86  28 2.90  27 2.90  23 2.93   8 3.16   7 3.16
  21  0.374  0.266  0.390-  77 1.70  39 1.72  57 1.75  69 1.80  49 1.81  53 1.85  17 2.44   5 2.63
                             7 2.66   9 2.86  11 2.86  30 2.90  29 2.90  18 2.93   2 3.16   1 3.16
  22  0.374  0.766  0.390-  78 1.70  40 1.72  58 1.75  70 1.80  50 1.81  54 1.85  18 2.44   6 2.63
                             8 2.66  10 2.86  12 2.86  29 2.90  30 2.90  17 2.93   1 3.16   2 3.16
  23  0.874  0.266  0.390-  79 1.70  37 1.72  59 1.75  71 1.80  51 1.81  55 1.85  19 2.44   7 2.63
                             5 2.66  11 2.86   9 2.86  32 2.90  31 2.90  20 2.93   4 3.16   3 3.16
  24  0.874  0.766  0.390-  80 1.70  38 1.72  60 1.75  72 1.80  52 1.81  56 1.85  20 2.44   8 2.63
                             6 2.66  12 2.86  10 2.86  31 2.90  32 2.90  19 2.93   3 3.16   4 3.16
  25  0.376  0.234  0.890-  73 1.70  41 1.72  53 1.75  67 1.80  61 1.81  57 1.85  29 2.44  11 2.63
                             9 2.66   7 2.86   5 2.86  17 2.90  18 2.90  30 2.93  15 3.16  16 3.16
  26  0.376  0.734  0.890-  74 1.70  42 1.72  54 1.75  68 1.80  62 1.81  58 1.85  30 2.44  12 2.63
                            10 2.66   8 2.86   6 2.86  18 2.90  17 2.90  29 2.93  16 3.16  15 3.16
  27  0.876  0.234  0.890-  75 1.70  43 1.72  55 1.75  65 1.80  63 1.81  59 1.85  31 2.44   9 2.63
                            11 2.66   5 2.86   7 2.86  19 2.90  20 2.90  32 2.93  13 3.16  14 3.16
  28  0.876  0.734  0.890-  76 1.70  44 1.72  56 1.75  66 1.80  64 1.81  60 1.85  32 2.44  10 2.63
                            12 2.66   6 2.86   8 2.86  20 2.90  19 2.90  31 2.93  14 3.16  13 3.16
  29  0.376  0.016  0.110-  74 1.70  46 1.72  50 1.75  67 1.80  57 1.81  61 1.85  25 2.44  16 2.63
                            14 2.66   3 2.86   1 2.86  22 2.90  21 2.90  26 2.93  12 3.16  11 3.16
  30  0.376  0.516  0.110-  73 1.70  45 1.72  49 1.75  68 1.80  58 1.81  62 1.85  26 2.44  15 2.63
                            13 2.66   4 2.86   2 2.86  22 2.90  21 2.90  25 2.93  11 3.16  12 3.16
  31  0.876  0.016  0.110-  76 1.70  48 1.72  52 1.75  65 1.80  59 1.81  63 1.85  27 2.44  14 2.63
                            16 2.66   1 2.86   3 2.86  24 2.90  23 2.90  28 2.93  10 3.16   9 3.16
  32  0.876  0.516  0.110-  75 1.70  47 1.72  51 1.75  66 1.80  60 1.81  64 1.85  28 2.44  13 2.63
                            15 2.66   2 2.86   4 2.86  24 2.90  23 2.90  27 2.93   9 3.16  10 3.16
  33  0.054  0.051  0.654-  20 1.72  14 1.75   5 1.81   1 1.85
  34  0.054  0.551  0.654-  19 1.72  13 1.75   6 1.81   2 1.85
  35  0.554  0.051  0.654-  18 1.72  16 1.75   7 1.81   3 1.85
  36  0.554  0.551  0.654-  17 1.72  15 1.75   8 1.81   4 1.85
  37  0.054  0.199  0.346-  23 1.72   9 1.75   1 1.81   5 1.85
  38  0.054  0.699  0.346-  24 1.72  10 1.75   2 1.81   6 1.85
  39  0.554  0.199  0.346-  21 1.72  11 1.75   3 1.81   7 1.85
  40  0.554  0.699  0.346-  22 1.72  12 1.75   4 1.81   8 1.85
  41  0.196  0.301  0.846-  25 1.72   5 1.75  13 1.81   9 1.85
  42  0.196  0.801  0.846-  26 1.72   6 1.75  14 1.81  10 1.85
  43  0.696  0.301  0.846-  27 1.72   7 1.75  15 1.81  11 1.85
  44  0.696  0.801  0.846-  28 1.72   8 1.75  16 1.81  12 1.85
  45  0.196  0.449  0.154-  30 1.72   2 1.75   9 1.81  13 1.85
  46  0.196  0.949  0.154-  29 1.72   1 1.75  10 1.81  14 1.85
  47  0.696  0.449  0.154-  32 1.72   4 1.75  11 1.81  15 1.85
  48  0.696  0.949  0.154-  31 1.72   3 1.75  12 1.81  16 1.85
  49  0.446  0.449  0.346-   4 1.72  30 1.75  21 1.81  17 1.85
  50  0.446  0.949  0.346-   3 1.72  29 1.75  22 1.81  18 1.85
  51  0.946  0.449  0.346-   2 1.72  32 1.75  23 1.81  19 1.85
  52  0.946  0.949  0.346-   1 1.72  31 1.75  24 1.81  20 1.85
  53  0.446  0.301  0.654-   7 1.72  25 1.75  17 1.81  21 1.85
  54  0.446  0.801  0.654-   8 1.72  26 1.75  18 1.81  22 1.85
  55  0.946  0.301  0.654-   5 1.72  27 1.75  19 1.81  23 1.85
  56  0.946  0.801  0.654-   6 1.72  28 1.75  20 1.81  24 1.85
  57  0.304  0.199  0.154-   9 1.72  21 1.75  29 1.81  25 1.85
  58  0.304  0.699  0.154-  10 1.72  22 1.75  30 1.81  26 1.85
  59  0.804  0.199  0.154-  11 1.72  23 1.75  31 1.81  27 1.85
  60  0.804  0.699  0.154-  12 1.72  24 1.75  32 1.81  28 1.85
  61  0.304  0.051  0.846-  14 1.72  18 1.75  25 1.81  29 1.85
  62  0.304  0.551  0.846-  13 1.72  17 1.75  26 1.81  30 1.85
  63  0.804  0.051  0.846-  16 1.72  20 1.75  27 1.81  31 1.85
  64  0.804  0.551  0.846-  15 1.72  19 1.75  28 1.81  32 1.85
  65  0.025  0.125  0.000-  14 1.70   9 1.70  27 1.80  31 1.80
  66  0.025  0.625  0.000-  13 1.70  10 1.70  28 1.80  32 1.80
  67  0.525  0.125  0.000-  16 1.70  11 1.70  25 1.80  29 1.80
  68  0.525  0.625  0.000-  15 1.70  12 1.70  26 1.80  30 1.80
  69  0.225  0.375  0.500-   5 1.70   2 1.70  17 1.80  21 1.80
  70  0.225  0.875  0.500-   6 1.70   1 1.70  18 1.80  22 1.80
  71  0.725  0.375  0.500-   7 1.70   4 1.70  19 1.80  23 1.80
  72  0.725  0.875  0.500-   8 1.70   3 1.70  20 1.80  24 1.80
  73  0.475  0.375  0.000-  25 1.70  30 1.70  15 1.80  11 1.80
  74  0.475  0.875  0.000-  29 1.70  26 1.70  16 1.80  12 1.80
  75  0.975  0.375  0.000-  27 1.70  32 1.70  13 1.80   9 1.80
  76  0.975  0.875  0.000-  31 1.70  28 1.70  14 1.80  10 1.80
  77  0.275  0.125  0.500-  18 1.70  21 1.70   5 1.80   1 1.80
  78  0.275  0.625  0.500-  17 1.70  22 1.70   6 1.80   2 1.80
  79  0.775  0.125  0.500-  20 1.70  23 1.70   7 1.80   3 1.80
  80  0.775  0.625  0.500-  19 1.70  24 1.70   8 1.80   4 1.80

  LATTYP: Found a simple orthorhombic cell.
 ALAT       =     6.4611410221
 B/A-ratio  =     1.3681458986
 C/A-ratio  =     1.4070268484
  
  Lattice vectors:
  
 A1 = (   0.0000000000,   0.0000000000,   6.4611410221)
 A2 = (   8.8397835895,   0.0000000000,   0.0000000000)
 A3 = (   0.0000000000,   9.0909988896,   0.0000000000)


Analysis of symmetry for initial positions (statically):
=====================================================================
 Subroutine PRICEL returns following result:
 
  LATTYP: Found a simple orthorhombic cell.
 ALAT       =     4.4198917950
 B/A-ratio  =     1.0284187391
 C/A-ratio  =     1.4618323981
  
  Lattice vectors:
  
 A1 = (   4.4198917950,   0.0000000000,   0.0000000000)
 A2 = (   0.0000000000,   4.5454995467,   0.0000000000)
 A3 = (   0.0000000000,   0.0000000000,   6.4611410221)
 
   4 primitive cells build up your supercell.
 

 Routine SETGRP: Setting up the symmetry group for a 
 simple orthorhombic supercell.


 Subroutine GETGRP returns: Found  8 space group operations
 (whereof  2 operations were pure point group operations)
 out of a pool of  8 trial point group operations.


The static configuration has the point symmetry S_2 .
 The point group associated with its full space group is D_2h.


Analysis of symmetry for dynamics (positions and initial velocities):
=====================================================================
 Subroutine PRICEL returns following result:
 
  LATTYP: Found a simple orthorhombic cell.
 ALAT       =     4.4198917950
 B/A-ratio  =     1.0284187391
 C/A-ratio  =     1.4618323981
  
  Lattice vectors:
  
 A1 = (   4.4198917950,   0.0000000000,   0.0000000000)
 A2 = (   0.0000000000,   4.5454995467,   0.0000000000)
 A3 = (   0.0000000000,   0.0000000000,   6.4611410221)
 
   4 primitive cells build up your supercell.
 

 Routine SETGRP: Setting up the symmetry group for a 
 simple orthorhombic supercell.


 Subroutine GETGRP returns: Found  8 space group operations
 (whereof  2 operations were pure point group operations)
 out of a pool of  8 trial point group operations.


The dynamic configuration has the point symmetry S_2 .
 The point group associated with its full space group is D_2h.


Analysis of constrained symmetry for selective dynamics:
=====================================================================
 Subroutine PRICEL returns following result:
 
  LATTYP: Found a simple orthorhombic cell.
 ALAT       =     4.4198917950
 B/A-ratio  =     1.0284187391
 C/A-ratio  =     1.4618323981
  
  Lattice vectors:
  
 A1 = (   4.4198917950,   0.0000000000,   0.0000000000)
 A2 = (   0.0000000000,   4.5454995467,   0.0000000000)
 A3 = (   0.0000000000,   0.0000000000,   6.4611410221)
 
   4 primitive cells build up your supercell.
 

 Routine SETGRP: Setting up the symmetry group for a 
 simple orthorhombic supercell.


 Subroutine GETGRP returns: Found  8 space group operations
 (whereof  2 operations were pure point group operations)
 out of a pool of  8 trial point group operations.


The constrained configuration has the point symmetry S_2 .
 The point group associated with its full space group is D_2h.


 Subroutine INISYM returns: Found  8 space group operations
 (whereof  2 operations are pure point group operations),
 and found     4 'primitive' translations


----------------------------------------------------------------------------------------

                                     Primitive cell                                     

  volume of cell :     129.8083

  direct lattice vectors                    reciprocal lattice vectors
     4.419891795  0.000000000  0.000000000     0.226249883  0.000000000  0.000000000
     0.000000000  4.545499547  0.000000000     0.000000000  0.219997822  0.000000000
     0.000000000  0.000000000  6.461141022     0.000000000  0.000000000  0.154771425

  length of vectors
     4.419891795  4.545499547  6.461141022     0.226249883  0.219997822  0.154771425

  position of ions in fractional coordinates (direct lattice)
     0.252301010  0.031394432  0.389988368
     0.252301010  0.468605564  0.610011602
     0.247698990  0.531394421  0.110011610
     0.247698990  0.968605501  0.889988398
     0.747698961  0.968605501  0.610011602
     0.747698961  0.531394421  0.389988368
     0.752301039  0.468605564  0.889988398
     0.752301039  0.031394432  0.110011610
     0.107072531  0.102390997  0.654148561
     0.107072531  0.397608992  0.345851469
     0.392927454  0.602391023  0.845851439
     0.392927454  0.897608899  0.154148517
     0.892927514  0.897608899  0.345851469
     0.892927514  0.602391023  0.654148561
     0.607072486  0.397608992  0.154148517
     0.607072486  0.102390997  0.845851439
     0.050188047  0.249999994  0.000000000
     0.449811960  0.749999961  0.500000000
     0.949811900  0.749999961  0.000000000
     0.550188099  0.249999994  0.500000000

  ion indices of the primitive-cell ions
   primitive index   ion index
                 1           1
                 2           5
                 3          10
                 4          14
                 5          18
                 6          22
                 7          27
                 8          31
                 9          33
                10          37
                11          42
                12          46
                13          52
                14          56
                15          57
                16          61
                17          65
                18          70
                19          76
                20          77

----------------------------------------------------------------------------------------



 KPOINTS: k-points                                

Automatic generation of k-mesh.
 Grid dimensions read from file:
 generate k-points for:    4    4    4

 Generating k-lattice:

  Cartesian coordinates                     Fractional coordinates (reciprocal lattice)
     0.028281235  0.000000000  0.000000000     0.250000000  0.000000000  0.000000000
     0.000000000  0.027499728  0.000000000     0.000000000  0.250000000  0.000000000
     0.000000000  0.000000000  0.038692856     0.000000000  0.000000000  0.250000000

  Length of vectors
     0.028281235  0.027499728  0.038692856

  Shift w.r.t. Gamma in fractional coordinates (k-lattice)
     0.500000000  0.500000000  0.500000000

 
 Subroutine IBZKPT returns following result:
 ===========================================
 
 Found      8 irreducible k-points:
 
 Following reciprocal coordinates:
            Coordinates               Weight
  0.125000  0.125000  0.125000      8.000000
  0.375000  0.125000  0.125000      8.000000
  0.125000  0.375000  0.125000      8.000000
  0.375000  0.375000  0.125000      8.000000
  0.125000  0.125000  0.375000      8.000000
  0.375000  0.125000  0.375000      8.000000
  0.125000  0.375000  0.375000      8.000000
  0.375000  0.375000  0.375000      8.000000
 
 Following cartesian coordinates:
            Coordinates               Weight
  0.014141  0.013750  0.019346      8.000000
  0.042422  0.013750  0.019346      8.000000
  0.014141  0.041250  0.019346      8.000000
  0.042422  0.041250  0.019346      8.000000
  0.014141  0.013750  0.058039      8.000000
  0.042422  0.013750  0.058039      8.000000
  0.014141  0.041250  0.058039      8.000000
  0.042422  0.041250  0.058039      8.000000
 


--------------------------------------------------------------------------------------------------------




 Dimension of arrays:
   k-points           NKPTS =      8   k-points in BZ     NKDIM =      8   number of bands    NBANDS=    233
   number of dos      NEDOS =    301   number of ions     NIONS =     80
   non local maximal  LDIM  =      4   non local SUM 2l+1 LMDIM =      8
   total plane-waves  NPLWV =  73728
   max r-space proj   IRMAX =   1614   max aug-charges    IRDMAX=   5725
   dimension x,y,z NGX =    48 NGY =   48 NGZ =   32
   dimension x,y,z NGXF=    96 NGYF=   96 NGZF=   64
   support grid    NGXF=    96 NGYF=   96 NGZF=   64
   ions per type =              32  48
   NGX,Y,Z   is equivalent  to a cutoff of   9.03,  8.78,  8.23 a.u.
   NGXF,Y,Z  is equivalent  to a cutoff of  18.05, 17.56, 16.47 a.u.

 SYSTEM =  Alumina_orthorombic_cell_under_strain   
 POSCAR =     Al  O                                

 Startparameter for this run:
   NWRITE =      2    write-flag & timer
   PREC   = normal    normal or accurate (medium, high low for compatibility)
   ISTART =      0    job   : 0-new  1-cont  2-samecut
   ICHARG =      2    charge: 1-file 2-atom 10-const
   ISPIN  =      1    spin polarized calculation?
   LNONCOLLINEAR =      F non collinear calculations
   LSORBIT =      F    spin-orbit coupling
   INIWAV =      1    electr: 0-lowe 1-rand  2-diag
   LASPH  =      F    aspherical Exc in radial PAW
 Electronic Relaxation 1
   ENCUT  =  400.0 eV  29.40 Ry    5.42 a.u.  14.42 14.83 10.54*2*pi/ulx,y,z
   ENINI  =  400.0     initial cutoff
   ENAUG  =  605.4 eV  augmentation charge cutoff
   NELM   =    100;   NELMIN=  2; NELMDL= -5     # of ELM steps 
   EDIFF  = 0.1E-05   stopping-criterion for ELM
   LREAL  =      T    real-space projection
   NLSPLINE    = F    spline interpolate recip. space projectors
   LCOMPAT=      F    compatible to vasp.4.4
   GGA_COMPAT  = T    GGA compatible to vasp.4.4-vasp.4.6
   LMAXPAW     = -100 max onsite density
   LMAXMIX     =    2 max onsite mixed and CHGCAR
   VOSKOWN=      0    Vosko Wilk Nusair interpolation
   ROPT   =   -0.00050  -0.00050
 Ionic relaxation
   EDIFFG = -.1E-02   stopping-criterion for IOM
   NSW    =      0    number of steps for IOM
   NBLOCK =      1;   KBLOCK =      1    inner block; outer block 
   IBRION =     -1    ionic relax: 0-MD 1-quasi-New 2-CG
   NFREE  =      0    steps in history (QN), initial steepest desc. (CG)
   ISIF   =      2    stress and relaxation
   IWAVPR =     10    prediction:  0-non 1-charg 2-wave 3-comb
   ISYM   =      2    0-nonsym 1-usesym 2-fastsym
   LCORR  =      T    Harris-Foulkes like correction to forces

   POTIM  = 0.5000    time-step for ionic-motion
   TEIN   =    0.0    initial temperature
   TEBEG  =    0.0;   TEEND  =   0.0 temperature during run
   SMASS  =  -3.00    Nose mass-parameter (am)
   estimated Nose-frequenzy (Omega)   =  0.10E-29 period in steps = 0.13E+47 mass=  -0.179E-26a.u.
   SCALEE = 1.0000    scale energy and forces
   NPACO  =    256;   APACO  = 10.0  distance and # of slots for P.C.
   PSTRESS=    0.0 pullay stress

  Mass of Ions in am
   POMASS =  26.98 16.00
  Ionic Valenz
   ZVAL   =   3.00  6.00
  Atomic Wigner-Seitz radii
   RWIGS  =  -1.00 -1.00
  virtual crystal weights 
   VCA    =   1.00  1.00
   NELECT =     384.0000    total number of electrons
   NUPDOWN=      -1.0000    fix difference up-down

 DOS related values:
   EMIN   =  10.00;   EMAX   =-10.00  energy-range for DOS
   EFERMI =   0.00
   ISMEAR =     1;   SIGMA  =   0.03  broadening in eV -4-tet -1-fermi 0-gaus

 Electronic relaxation 2 (details)
   IALGO  =     38    algorithm
   LDIAG  =      T    sub-space diagonalisation (order eigenvalues)
   LSUBROT=      F    optimize rotation matrix (better conditioning)
   TURBO    =      0    0=normal 1=particle mesh
   IRESTART =      0    0=no restart 2=restart with 2 vectors
   NREBOOT  =      0    no. of reboots
   NMIN     =      0    reboot dimension
   EREF     =   0.00    reference energy to select bands
   IMIX   =      4    mixing-type and parameters
     AMIX     =   0.40;   BMIX     =  1.00
     AMIX_MAG =   1.60;   BMIX_MAG =  1.00
     AMIN     =   0.10
     WC   =   100.;   INIMIX=   1;  MIXPRE=   1;  MAXMIX= -45

 Intra band minimization:
   WEIMIN = 0.0000     energy-eigenvalue tresh-hold
   EBREAK =  0.11E-08  absolut break condition
   DEPER  =   0.30     relativ break condition  

   TIME   =   0.40     timestep for ELM

  volume/ion in A,a.u.               =       6.49        43.80
  Fermi-wavevector in a.u.,A,eV,Ry     =   1.480464  2.797671 29.820878  2.191773
  Thomas-Fermi vector in A             =   2.594495

 Write flags
   LWAVE        =      T    write WAVECAR
   LDOWNSAMPLE  =      F    k-point downsampling of WAVECAR
   LCHARG       =      T    write CHGCAR
   LVTOT        =      F    write LOCPOT, total local potential
   LVHAR        =      F    write LOCPOT, Hartree potential only
   LELF         =      F    write electronic localiz. function (ELF)
   LORBIT       =      0    0 simple, 1 ext, 2 COOP (PROOUT), +10 PAW based schemes


 Dipole corrections
   LMONO  =      F    monopole corrections only (constant potential shift)
   LDIPOL =      F    correct potential (dipole corrections)
   IDIPOL =      0    1-x, 2-y, 3-z, 4-all directions 
   EPSILON=  1.0000000 bulk dielectric constant

 Exchange correlation treatment:
   GGA     =    --    GGA type
   LEXCH   =     8    internal setting for exchange type
   LIBXC   =     F    Libxc                    
   VOSKOWN =     0    Vosko Wilk Nusair interpolation
   LHFCALC =     F    Hartree Fock is set to
   LHFONE  =     F    Hartree Fock one center treatment
   AEXX    =    0.0000 exact exchange contribution

 Linear response parameters
   LEPSILON=     F    determine dielectric tensor
   LRPA    =     F    only Hartree local field effects (RPA)
   LNABLA  =     F    use nabla operator in PAW spheres
   LVEL    =     F    velocity operator in full k-point grid
   CSHIFT  =0.1000    complex shift for real part using Kramers Kronig
   OMEGAMAX=  -1.0    maximum frequency
   DEG_THRESHOLD= 0.2000000E-02 threshold for treating states as degnerate
   RTIME   =   -0.100 relaxation time in fs
  (WPLASMAI=    0.000 imaginary part of plasma frequency in eV, 0.658/RTIME)
   DFIELD  = 0.0000000 0.0000000 0.0000000 field for delta impulse in time

  Optional k-point grid parameters
   LKPOINTS_OPT  =     F    use optional k-point grid
   KPOINTS_OPT_MODE=     1    mode for optional k-point grid

 Orbital magnetization related:
   ORBITALMAG=     F  switch on orbital magnetization
   LCHIMAG   =     F  perturbation theory with respect to B field
   DQ        =  0.001000  dq finite difference perturbation B field
   LLRAUG    =     F  two centre corrections for induced B field



--------------------------------------------------------------------------------------------------------


 Static calculation
 charge density and potential will be updated during run
 non-spin polarized calculation
 Variant of blocked Davidson
 Davidson routine will perform the subspace rotation
 perform sub-space diagonalisation
    after iterative eigenvector-optimisation
 modified Broyden-mixing scheme, WC =      100.0
 initial mixing is a Kerker type mixing with AMIX =  0.4000 and BMIX =      1.0000
 Hartree-type preconditioning will be used
 using additional bands           41
 real space projection scheme for non local part
 use partial core corrections
 calculate Harris-corrections to forces   (improved forces if not selfconsistent)
 use gradient corrections 
 use of overlap-Matrix (Vanderbilt PP)
 Methfessel and Paxton  Order N= 1 SIGMA  =   0.03


--------------------------------------------------------------------------------------------------------


  energy-cutoff  :      400.00
  volume of cell :      519.23
      direct lattice vectors                 reciprocal lattice vectors
     8.839783590  0.000000000  0.000000000     0.113124941  0.000000000  0.000000000
     0.000000000  9.090998890  0.000000000     0.000000000  0.109998913  0.000000000
     0.000000000  0.000000000  6.461141022     0.000000000  0.000000000  0.154771425

  length of vectors
     8.839783590  9.090998890  6.461141022     0.113124941  0.109998913  0.154771425



 k-points in units of 2pi/SCALE and weight: k-points                                
   0.01414062  0.01374986  0.01934643       0.125
   0.04242185  0.01374986  0.01934643       0.125
   0.01414062  0.04124959  0.01934643       0.125
   0.04242185  0.04124959  0.01934643       0.125
   0.01414062  0.01374986  0.05803928       0.125
   0.04242185  0.01374986  0.05803928       0.125
   0.01414062  0.04124959  0.05803928       0.125
   0.04242185  0.04124959  0.05803928       0.125

 k-points in reciprocal lattice and weights: k-points                                
   0.12500000  0.12500000  0.12500000       0.125
   0.37500000  0.12500000  0.12500000       0.125
   0.12500000  0.37500000  0.12500000       0.125
   0.37500000  0.37500000  0.12500000       0.125
   0.12500000  0.12500000  0.37500000       0.125
   0.37500000  0.12500000  0.37500000       0.125
   0.12500000  0.37500000  0.37500000       0.125
   0.37500000  0.37500000  0.37500000       0.125

 position of ions in fractional coordinates (direct lattice) 
   0.12615050  0.01569722  0.38998837
   0.12615050  0.51569723  0.38998837
   0.62615052  0.01569722  0.38998837
   0.62615052  0.51569723  0.38998837
   0.12615050  0.23430279  0.61001160
   0.12615050  0.73430277  0.61001160
   0.62615052  0.23430279  0.61001160
   0.62615052  0.73430277  0.61001160
   0.12384950  0.26569723  0.11001161
   0.12384950  0.76569723  0.11001161
   0.62384948  0.26569723  0.11001161
   0.62384948  0.76569723  0.11001161
   0.12384950  0.48430277  0.88998840
   0.12384950  0.98430277  0.88998840
   0.62384948  0.48430277  0.88998840
   0.62384948  0.98430277  0.88998840
   0.37384948  0.48430277  0.61001160
   0.37384948  0.98430277  0.61001160
   0.87384948  0.48430277  0.61001160
   0.87384948  0.98430277  0.61001160
   0.37384948  0.26569723  0.38998837
   0.37384948  0.76569723  0.38998837
   0.87384948  0.26569723  0.38998837
   0.87384948  0.76569723  0.38998837
   0.37615052  0.23430279  0.88998840
   0.37615052  0.73430277  0.88998840
   0.87615052  0.23430279  0.88998840
   0.87615052  0.73430277  0.88998840
   0.37615052  0.01569722  0.11001161
   0.37615052  0.51569723  0.11001161
   0.87615052  0.01569722  0.11001161
   0.87615052  0.51569723  0.11001161
   0.05353627  0.05119550  0.65414856
   0.05353627  0.55119553  0.65414856
   0.55353624  0.05119550  0.65414856
   0.55353624  0.55119553  0.65414856
   0.05353627  0.19880450  0.34585147
   0.05353627  0.69880447  0.34585147
   0.55353624  0.19880450  0.34585147
   0.55353624  0.69880447  0.34585147
   0.19646373  0.30119550  0.84585144
   0.19646373  0.80119553  0.84585144
   0.69646370  0.30119550  0.84585144
   0.69646370  0.80119553  0.84585144
   0.19646373  0.44880450  0.15414852
   0.19646373  0.94880447  0.15414852
   0.69646370  0.44880450  0.15414852
   0.69646370  0.94880447  0.15414852
   0.44646376  0.44880450  0.34585147
   0.44646376  0.94880447  0.34585147
   0.94646376  0.44880450  0.34585147
   0.94646376  0.94880447  0.34585147
   0.44646376  0.30119550  0.65414856
   0.44646376  0.80119553  0.65414856
   0.94646376  0.30119550  0.65414856
   0.94646376  0.80119553  0.65414856
   0.30353624  0.19880450  0.15414852
   0.30353624  0.69880447  0.15414852
   0.80353624  0.19880450  0.15414852
   0.80353624  0.69880447  0.15414852
   0.30353624  0.05119550  0.84585144
   0.30353624  0.55119553  0.84585144
   0.80353624  0.05119550  0.84585144
   0.80353624  0.55119553  0.84585144
   0.02509402  0.12500000  0.00000000
   0.02509402  0.62500000  0.00000000
   0.52509405  0.12500000  0.00000000
   0.52509405  0.62500000  0.00000000
   0.22490598  0.37500000  0.50000000
   0.22490598  0.87500000  0.50000000
   0.72490601  0.37500000  0.50000000
   0.72490601  0.87500000  0.50000000
   0.47490595  0.37500000  0.00000000
   0.47490595  0.87500000  0.00000000
   0.97490595  0.37500000  0.00000000
   0.97490595  0.87500000  0.00000000
   0.27509405  0.12500000  0.50000000
   0.27509405  0.62500000  0.50000000
   0.77509405  0.12500000  0.50000000
   0.77509405  0.62500000  0.50000000

 position of ions in cartesian coordinates  (Angst):
   1.11514316  0.14270338  2.51976984
   1.11514316  4.68820292  2.51976984
   5.53503509  0.14270338  2.51976984
   5.53503509  4.68820292  2.51976984
   1.11514316  2.13004638  3.94137099
   1.11514316  6.67554569  3.94137099
   5.53503509  2.13004638  3.94137099
   5.53503509  6.67554569  3.94137099
   1.09480274  2.41545320  0.71080052
   1.09480274  6.96095265  0.71080052
   5.51469440  2.41545320  0.71080052
   5.51469440  6.96095265  0.71080052
   1.09480274  4.40279597  5.75034055
   1.09480274  8.94829541  5.75034055
   5.51469440  4.40279597  5.75034055
   5.51469440  8.94829541  5.75034055
   3.30474850  4.40279597  3.94137099
   3.30474850  8.94829541  3.94137099
   7.72464030  4.40279597  3.94137099
   7.72464030  8.94829541  3.94137099
   3.30474850  2.41545320  2.51976984
   3.30474850  6.96095265  2.51976984
   7.72464030  2.41545320  2.51976984
   7.72464030  6.96095265  2.51976984
   3.32508919  2.13004638  5.75034055
   3.32508919  6.67554569  5.75034055
   7.74498099  2.13004638  5.75034055
   7.74498099  6.67554569  5.75034055
   3.32508919  0.14270338  0.71080052
   3.32508919  4.68820292  0.71080052
   7.74498099  0.14270338  0.71080052
   7.74498099  4.68820292  0.71080052
   0.47324900  0.46541823  4.22654610
   0.47324900  5.01091794  4.22654610
   4.89314060  0.46541823  4.22654610
   4.89314060  5.01091794  4.22654610
   0.47324900  1.80733149  2.23459511
   0.47324900  6.35283067  2.23459511
   4.89314060  1.80733149  2.23459511
   4.89314060  6.35283067  2.23459511
   1.73669683  2.73816795  5.46516543
   1.73669683  7.28366767  5.46516543
   6.15658836  2.73816795  5.46516543
   6.15658836  7.28366767  5.46516543
   1.73669683  4.08008122  0.99597530
   1.73669683  8.62558039  0.99597530
   6.15658836  4.08008122  0.99597530
   6.15658836  8.62558039  0.99597530
   3.94664299  4.08008122  2.23459511
   3.94664299  8.62558039  2.23459511
   8.36653479  4.08008122  2.23459511
   8.36653479  8.62558039  2.23459511
   3.94664299  2.73816795  4.22654610
   3.94664299  7.28366767  4.22654610
   8.36653479  2.73816795  4.22654610
   8.36653479  7.28366767  4.22654610
   2.68319470  1.80733149  0.99597530
   2.68319470  6.35283067  0.99597530
   7.10308649  1.80733149  0.99597530
   7.10308649  6.35283067  0.99597530
   2.68319470  0.46541823  5.46516543
   2.68319470  5.01091794  5.46516543
   7.10308649  0.46541823  5.46516543
   7.10308649  5.01091794  5.46516543
   0.22182574  1.13637486  0.00000000
   0.22182574  5.68187431  0.00000000
   4.64171776  1.13637486  0.00000000
   4.64171776  5.68187431  0.00000000
   1.98812019  3.40912458  3.23057051
   1.98812019  7.95462403  3.23057051
   6.40801225  3.40912458  3.23057051
   6.40801225  7.95462403  3.23057051
   4.19806583  3.40912458  0.00000000
   4.19806583  7.95462403  0.00000000
   8.61795762  3.40912458  0.00000000
   8.61795762  7.95462403  0.00000000
   2.43177187  1.13637486  3.23057051
   2.43177187  5.68187431  3.23057051
   6.85166366  1.13637486  3.23057051
   6.85166366  5.68187431  3.23057051



--------------------------------------------------------------------------------------------------------


 k-point   1 :   0.1250 0.1250 0.1250  plane waves:    9440
 k-point   2 :   0.3750 0.1250 0.1250  plane waves:    9438
 k-point   3 :   0.1250 0.3750 0.1250  plane waves:    9437
 k-point   4 :   0.3750 0.3750 0.1250  plane waves:    9442
 k-point   5 :   0.1250 0.1250 0.3750  plane waves:    9437
 k-point   6 :   0.3750 0.1250 0.3750  plane waves:    9407
 k-point   7 :   0.1250 0.3750 0.3750  plane waves:    9437
 k-point   8 :   0.3750 0.3750 0.3750  plane waves:    9427

 maximum and minimum number of plane-waves per node :      9442     9407

 maximum number of plane-waves:      9442
 maximum index in each direction: 
   IXMAX=   14   IYMAX=   14   IZMAX=   10
   IXMIN=  -14   IYMIN=  -15   IZMIN=  -10


 serial   3D FFT for wavefunctions
 parallel 3D FFT for charge:
    minimum data exchange during FFTs selected (reduces bandwidth)


 total amount of memory used by VASP MPI-rank0   398102. kBytes
=======================================================================

   base      :      30000. kBytes
   nonlr-proj:       9703. kBytes
   fftplans  :      20716. kBytes
   grid      :      36753. kBytes
   one-center:        245. kBytes
   wavefun   :     300685. kBytes

     INWAV:  cpu time      0.0001: real time      0.0003
 Broyden mixing: mesh for mixing (old mesh)
   NGX = 29   NGY = 29   NGZ = 21
  (NGX  = 96   NGY  = 96   NGZ  = 64)
  gives a total of  17661 points

 initial charge density was supplied:
 charge density of overlapping atoms calculated
 number of electron     384.0000000 magnetization 
 keeping initial charge density in first step


--------------------------------------------------------------------------------------------------------


 Maximum index for non-local projection operator         1523
 Maximum index for augmentation-charges         5384 (set IRDMAX)


--------------------------------------------------------------------------------------------------------


 First call to EWALD:  gamma=   0.221
 Maximum number of real-space cells 3x 2x 3
 Maximum number of reciprocal cells 3x 3x 2

    FEWALD:  cpu time      0.0773: real time      0.0872


--------------------------------------- Iteration      1(   1)  ---------------------------------------


    POTLOK:  cpu time      0.2713: real time      0.3075
    SETDIJ:  cpu time      0.0830: real time      0.0929
     EDDAV:  cpu time     30.6576: real time     35.5307
       DOS:  cpu time      0.0024: real time      0.0028
    --------------------------------------------
      LOOP:  cpu time     31.0143: real time     35.9340

 eigenvalue-minimisations  :  3728
 total energy-change (2. order) : 0.1954962E+04  (-0.1848359E+05)
 number of electron     384.0000000 magnetization 
 augmentation part      384.0000000 magnetization 

 Free energy of the ion-electron system (eV)
  ---------------------------------------------------
  alpha Z        PSCENC =       795.61630399
  Ewald energy   TEWEN  =    -21180.04607332
  -Hartree energ DENC   =     -4263.98953761
  -exchange      EXHF   =         0.00000000
  -V(xc)+E(xc)   XCENC  =       584.40016976
  PAW double counting   =     18752.77991877   -17816.57094691
  entropy T*S    EENTRO =        -0.00193893
  eigenvalues    EBANDS =      2620.92000777
  atomic energy  EATOM  =     22461.85434800
  Solvation  Ediel_sol  =         0.00000000
  ---------------------------------------------------
  free energy    TOTEN  =      1954.96225152 eV

  energy without entropy =     1954.96419046  energy(sigma->0) =     1954.96289783


--------------------------------------------------------------------------------------------------------




--------------------------------------- Iteration      1(   2)  ---------------------------------------


     EDDAV:  cpu time     35.1518: real time     40.8639
       DOS:  cpu time      0.0023: real time      0.0026
    --------------------------------------------
      LOOP:  cpu time     35.1540: real time     40.8665

 eigenvalue-minimisations  :  4320
 total energy-change (2. order) :-0.2472181E+04  (-0.2420787E+04)
 number of electron     384.0000000 magnetization 
 augmentation part      384.0000000 magnetization 

 Free energy of the ion-electron system (eV)
  ---------------------------------------------------
  alpha Z        PSCENC =       795.61630399
  Ewald energy   TEWEN  =    -21180.04607332
  -Hartree energ DENC   =     -4263.98953761
  -exchange      EXHF   =         0.00000000
  -V(xc)+E(xc)   XCENC  =       584.40016976
  PAW double counting   =     18752.77991877   -17816.57094691
  entropy T*S    EENTRO =         0.00018845
  eigenvalues    EBANDS =       148.73668932
  atomic energy  EATOM  =     22461.85434800
  Solvation  Ediel_sol  =         0.00000000
  ---------------------------------------------------
  free energy    TOTEN  =      -517.21893955 eV

  energy without entropy =     -517.21912800  energy(sigma->0) =     -517.21900237


--------------------------------------------------------------------------------------------------------




--------------------------------------- Iteration      1(   3)  ---------------------------------------


     EDDAV:  cpu time     35.1065: real time     40.2280
       DOS:  cpu time      0.0023: real time      0.0027
    --------------------------------------------
      LOOP:  cpu time     35.1089: real time     40.2307

 eigenvalue-minimisations  :  4376
 total energy-change (2. order) :-0.1027571E+03  (-0.1024533E+03)
 number of electron     384.0000000 magnetization 
 augmentation part      384.0000000 magnetization 

 Free energy of the ion-electron system (eV)
  ---------------------------------------------------
  alpha Z        PSCENC =       795.61630399
  Ewald energy   TEWEN  =    -21180.04607332
  -Hartree energ DENC   =     -4263.98953761
  -exchange      EXHF   =         0.00000000
  -V(xc)+E(xc)   XCENC  =       584.40016976
  PAW double counting   =     18752.77991877   -17816.57094691
  entropy T*S    EENTRO =         0.00070823
  eigenvalues    EBANDS =        45.97909941
  atomic energy  EATOM  =     22461.85434800
  Solvation  Ediel_sol  =         0.00000000
  ---------------------------------------------------
  free energy    TOTEN  =      -619.97600967 eV

  energy without entropy =     -619.97671790  energy(sigma->0) =     -619.97624575


--------------------------------------------------------------------------------------------------------




--------------------------------------- Iteration      1(   4)  ---------------------------------------


     EDDAV:  cpu time     35.1137: real time     40.7647
       DOS:  cpu time      0.0022: real time      0.0025
    --------------------------------------------
      LOOP:  cpu time     35.1159: real time     40.7672

 eigenvalue-minimisations  :  4328
 total energy-change (2. order) :-0.9166514E+00  (-0.9148673E+00)
 number of electron     384.0000000 magnetization 
 augmentation part      384.0000000 magnetization 

 Free energy of the ion-electron system (eV)
  ---------------------------------------------------
  alpha Z        PSCENC =       795.61630399
  Ewald energy   TEWEN  =    -21180.04607332
  -Hartree energ DENC   =     -4263.98953761
  -exchange      EXHF   =         0.00000000
  -V(xc)+E(xc)   XCENC  =       584.40016976
  PAW double counting   =     18752.77991877   -17816.57094691
  entropy T*S    EENTRO =         0.00070302
  eigenvalues    EBANDS =        45.06245323
  atomic energy  EATOM  =     22461.85434800
  Solvation  Ediel_sol  =         0.00000000
  ---------------------------------------------------
  free energy    TOTEN  =      -620.89266107 eV

  energy without entropy =     -620.89336409  energy(sigma->0) =     -620.89289541


--------------------------------------------------------------------------------------------------------




--------------------------------------- Iteration      1(   5)  ---------------------------------------


     EDDAV:  cpu time     35.4671: real time     41.4210
       DOS:  cpu time      0.0023: real time      0.0026
    CHARGE:  cpu time      1.3698: real time      1.5930
    MIXING:  cpu time      0.0104: real time      0.0107
    --------------------------------------------
      LOOP:  cpu time     36.8496: real time     43.0273

 eigenvalue-minimisations  :  4352
 total energy-change (2. order) :-0.1293434E-01  (-0.1292483E-01)
 number of electron     384.0000268 magnetization 
 augmentation part       39.3085447 magnetization 

 Broyden mixing:
  rms(total) = 0.56737E+01    rms(broyden)= 0.56717E+01
  rms(prec ) = 0.73650E+01
  weight for this iteration     100.00

 Free energy of the ion-electron system (eV)
  ---------------------------------------------------
  alpha Z        PSCENC =       795.61630399
  Ewald energy   TEWEN  =    -21180.04607332
  -Hartree energ DENC   =     -4263.98953761
  -exchange      EXHF   =         0.00000000
  -V(xc)+E(xc)   XCENC  =       584.40016976
  PAW double counting   =     18752.77991877   -17816.57094691
  entropy T*S    EENTRO =         0.00070284
  eigenvalues    EBANDS =        45.04951907
  atomic energy  EATOM  =     22461.85434800
  Solvation  Ediel_sol  =         0.00000000
  ---------------------------------------------------
  free energy    TOTEN  =      -620.90559541 eV

  energy without entropy =     -620.90629825  energy(sigma->0) =     -620.90582969


--------------------------------------------------------------------------------------------------------




--------------------------------------- Iteration      1(   6)  ---------------------------------------


    POTLOK:  cpu time      0.2536: real time      0.3077
    SETDIJ:  cpu time      0.0829: real time      0.0945
     EDDAV:  cpu time     33.5965: real time     38.7277
       DOS:  cpu time      0.0023: real time      0.0027
    CHARGE:  cpu time      1.3794: real time      1.6109
    MIXING:  cpu time      0.0097: real time      0.0111
    --------------------------------------------
      LOOP:  cpu time     35.3244: real time     40.7546

 eigenvalue-minimisations  :  4176
 total energy-change (2. order) : 0.7457011E+02  (-0.2601653E+02)
 number of electron     384.0000230 magnetization 
 augmentation part       34.2327760 magnetization 

 Broyden mixing:
  rms(total) = 0.20928E+01    rms(broyden)= 0.20911E+01
  rms(prec ) = 0.23546E+01
  weight for this iteration     100.00

 eigenvalues of (default mixing * dielectric matrix)
  average eigenvalue GAMMA=   1.1239
  1.1239

 Free energy of the ion-electron system (eV)
  ---------------------------------------------------
  alpha Z        PSCENC =       795.61630399
  Ewald energy   TEWEN  =    -21180.04607332
  -Hartree energ DENC   =     -4994.23841073
  -exchange      EXHF   =         0.00000000
  -V(xc)+E(xc)   XCENC  =       638.23044804
  PAW double counting   =     27200.70756094   -26282.68475229
  entropy T*S    EENTRO =         0.00053580
  eigenvalues    EBANDS =       814.22455317
  atomic energy  EATOM  =     22461.85434800
  Solvation  Ediel_sol  =         0.00000000
  ---------------------------------------------------
  free energy    TOTEN  =      -546.33548639 eV

  energy without entropy =     -546.33602220  energy(sigma->0) =     -546.33566500


--------------------------------------------------------------------------------------------------------




--------------------------------------- Iteration      1(   7)  ---------------------------------------


    POTLOK:  cpu time      0.2476: real time      0.2777
    SETDIJ:  cpu time      0.0827: real time      0.0930
     EDDAV:  cpu time     34.7001: real time     40.2542
       DOS:  cpu time      0.0022: real time      0.0026
    CHARGE:  cpu time      1.3800: real time      1.6183
    MIXING:  cpu time      0.0101: real time      0.0116
    --------------------------------------------
      LOOP:  cpu time     36.4227: real time     42.2573

 eigenvalue-minimisations  :  4328
 total energy-change (2. order) : 0.1361327E+01  (-0.1295084E+01)
 number of electron     384.0000217 magnetization 
 augmentation part       33.3224421 magnetization 

 Broyden mixing:
  rms(total) = 0.10233E+01    rms(broyden)= 0.10229E+01
  rms(prec ) = 0.11315E+01
  weight for this iteration     100.00

 eigenvalues of (default mixing * dielectric matrix)
  average eigenvalue GAMMA=   1.4108
  1.4108  1.4108

 Free energy of the ion-electron system (eV)
  ---------------------------------------------------
  alpha Z        PSCENC =       795.61630399
  Ewald energy   TEWEN  =    -21180.04607332
  -Hartree energ DENC   =     -5145.33628170
  -exchange      EXHF   =         0.00000000
  -V(xc)+E(xc)   XCENC  =       650.69161887
  PAW double counting   =     36177.35571675   -35262.21401622
  entropy T*S    EENTRO =         0.00043853
  eigenvalues    EBANDS =       957.10378528
  atomic energy  EATOM  =     22461.85434800
  Solvation  Ediel_sol  =         0.00000000
  ---------------------------------------------------
  free energy    TOTEN  =      -544.97415981 eV

  energy without entropy =     -544.97459834  energy(sigma->0) =     -544.97430599


--------------------------------------------------------------------------------------------------------




--------------------------------------- Iteration      1(   8)  ---------------------------------------


    POTLOK:  cpu time      0.2534: real time      0.2959
    SETDIJ:  cpu time      0.0832: real time      0.0949
     EDDAV:  cpu time     34.3202: real time     40.1968
       DOS:  cpu time      0.0023: real time      0.0026
    CHARGE:  cpu time      1.3843: real time      1.6295
    MIXING:  cpu time      0.0111: real time      0.0133
    --------------------------------------------
      LOOP:  cpu time     36.0544: real time     42.2330

 eigenvalue-minimisations  :  4256
 total energy-change (2. order) : 0.6693530E-02  (-0.6292678E-01)
 number of electron     384.0000220 magnetization 
 augmentation part       33.4740778 magnetization 

 Broyden mixing:
  rms(total) = 0.28345E+00    rms(broyden)= 0.28343E+00
  rms(prec ) = 0.33765E+00
  weight for this iteration     100.00

 eigenvalues of (default mixing * dielectric matrix)
  average eigenvalue GAMMA=   1.6099
  2.5042  1.1627  1.1627

 Free energy of the ion-electron system (eV)
  ---------------------------------------------------
  alpha Z        PSCENC =       795.61630399
  Ewald energy   TEWEN  =    -21180.04607332
  -Hartree energ DENC   =     -5160.06500973
  -exchange      EXHF   =         0.00000000
  -V(xc)+E(xc)   XCENC  =       653.45194731
  PAW double counting   =     42817.58288080   -41902.78705704
  entropy T*S    EENTRO =         0.00045287
  eigenvalues    EBANDS =       969.42474083
  atomic energy  EATOM  =     22461.85434800
  Solvation  Ediel_sol  =         0.00000000
  ---------------------------------------------------
  free energy    TOTEN  =      -544.96746628 eV

  energy without entropy =     -544.96791915  energy(sigma->0) =     -544.96761724


--------------------------------------------------------------------------------------------------------




--------------------------------------- Iteration      1(   9)  ---------------------------------------


    POTLOK:  cpu time      0.2532: real time      0.2940
    SETDIJ:  cpu time      0.0833: real time      0.0957
     EDDAV:  cpu time     35.0930: real time     41.1276
       DOS:  cpu time      0.0023: real time      0.0026
    CHARGE:  cpu time      1.3734: real time      1.5865
    MIXING:  cpu time      0.0115: real time      0.0130
    --------------------------------------------
      LOOP:  cpu time     36.8168: real time     43.1193

 eigenvalue-minimisations  :  4368
 total energy-change (2. order) :-0.1988380E-01  (-0.2272191E-01)
 number of electron     384.0000219 magnetization 
 augmentation part       33.3480125 magnetization 

 Broyden mixing:
  rms(total) = 0.10133E+00    rms(broyden)= 0.10128E+00
  rms(prec ) = 0.10476E+00
  weight for this iteration     100.00

 eigenvalues of (default mixing * dielectric matrix)
  average eigenvalue GAMMA=   1.7924
  1.0787  1.0787  2.5060  2.5060

 Free energy of the ion-electron system (eV)
  ---------------------------------------------------
  alpha Z        PSCENC =       795.61630399
  Ewald energy   TEWEN  =    -21180.04607332
  -Hartree energ DENC   =     -5194.98031624
  -exchange      EXHF   =         0.00000000
  -V(xc)+E(xc)   XCENC  =       656.87341298
  PAW double counting   =     45512.84219604   -44598.88101014
  entropy T*S    EENTRO =         0.00044353
  eigenvalues    EBANDS =      1001.73334506
  atomic energy  EATOM  =     22461.85434800
  Solvation  Ediel_sol  =         0.00000000
  ---------------------------------------------------
  free energy    TOTEN  =      -544.98735008 eV

  energy without entropy =     -544.98779361  energy(sigma->0) =     -544.98749793


--------------------------------------------------------------------------------------------------------




--------------------------------------- Iteration      1(  10)  ---------------------------------------


    POTLOK:  cpu time      0.2485: real time      0.2809
    SETDIJ:  cpu time      0.0829: real time      0.0930
     EDDAV:  cpu time     34.1190: real time     39.4060
       DOS:  cpu time      0.0026: real time      0.0053
    CHARGE:  cpu time      1.3735: real time      1.6029
    MIXING:  cpu time      0.0117: real time      0.0160
    --------------------------------------------
      LOOP:  cpu time     35.8382: real time     41.4041

 eigenvalue-minimisations  :  4264
 total energy-change (2. order) :-0.2901795E-02  (-0.2779426E-02)
 number of electron     384.0000218 magnetization 
 augmentation part       33.3792916 magnetization 

 Broyden mixing:
  rms(total) = 0.20808E-01    rms(broyden)= 0.20789E-01
  rms(prec ) = 0.27066E-01
  weight for this iteration     100.00

 eigenvalues of (default mixing * dielectric matrix)
  average eigenvalue GAMMA=   1.5862
  2.6163  2.2568  0.9777  0.9777  1.1025

 Free energy of the ion-electron system (eV)
  ---------------------------------------------------
  alpha Z        PSCENC =       795.61630399
  Ewald energy   TEWEN  =    -21180.04607332
  -Hartree energ DENC   =     -5191.65018240
  -exchange      EXHF   =         0.00000000
  -V(xc)+E(xc)   XCENC  =       656.70464526
  PAW double counting   =     44459.28503180   -43545.11658489
  entropy T*S    EENTRO =         0.00043261
  eigenvalues    EBANDS =       998.36182705
  atomic energy  EATOM  =     22461.85434800
  Solvation  Ediel_sol  =         0.00000000
  ---------------------------------------------------
  free energy    TOTEN  =      -544.99025188 eV

  energy without entropy =     -544.99068449  energy(sigma->0) =     -544.99039608


--------------------------------------------------------------------------------------------------------




--------------------------------------- Iteration      1(  11)  ---------------------------------------


    POTLOK:  cpu time      0.2646: real time      0.3060
    SETDIJ:  cpu time      0.0843: real time      0.1046
     EDDAV:  cpu time     34.5544: real time     40.1009
       DOS:  cpu time      0.0020: real time      0.0023
    CHARGE:  cpu time      1.3606: real time      1.5749
    MIXING:  cpu time      0.0129: real time      0.0150
    --------------------------------------------
      LOOP:  cpu time     36.2789: real time     42.1037

 eigenvalue-minimisations  :  4320
 total energy-change (2. order) : 0.7703831E-03  (-0.5388897E-03)
 number of electron     384.0000219 magnetization 
 augmentation part       33.3663161 magnetization 

 Broyden mixing:
  rms(total) = 0.19247E-01    rms(broyden)= 0.19243E-01
  rms(prec ) = 0.20662E-01
  weight for this iteration     100.00

 eigenvalues of (default mixing * dielectric matrix)
  average eigenvalue GAMMA=   1.6062
  2.8298  2.5047  1.0718  1.0718  1.0796  1.0796

 Free energy of the ion-electron system (eV)
  ---------------------------------------------------
  alpha Z        PSCENC =       795.61630399
  Ewald energy   TEWEN  =    -21180.04607332
  -Hartree energ DENC   =     -5193.54185078
  -exchange      EXHF   =         0.00000000
  -V(xc)+E(xc)   XCENC  =       656.85875643
  PAW double counting   =     44613.93196926   -43699.82767458
  entropy T*S    EENTRO =         0.00043835
  eigenvalues    EBANDS =      1000.16430115
  atomic energy  EATOM  =     22461.85434800
  Solvation  Ediel_sol  =         0.00000000
  ---------------------------------------------------
  free energy    TOTEN  =      -544.98948150 eV

  energy without entropy =     -544.98991984  energy(sigma->0) =     -544.98962761


--------------------------------------------------------------------------------------------------------




--------------------------------------- Iteration      1(  12)  ---------------------------------------


    POTLOK:  cpu time      0.2503: real time      0.2884
    SETDIJ:  cpu time      0.0835: real time      0.0960
     EDDAV:  cpu time     34.2728: real time     40.0626
       DOS:  cpu time      0.0023: real time      0.0027
    CHARGE:  cpu time      1.3699: real time      1.6000
    MIXING:  cpu time      0.0122: real time      0.0142
    --------------------------------------------
      LOOP:  cpu time     35.9911: real time     42.0639

 eigenvalue-minimisations  :  4248
 total energy-change (2. order) : 0.4261747E-05  (-0.2204479E-03)
 number of electron     384.0000219 magnetization 
 augmentation part       33.3722349 magnetization 

 Broyden mixing:
  rms(total) = 0.30656E-02    rms(broyden)= 0.30443E-02
  rms(prec ) = 0.38995E-02
  weight for this iteration     100.00

 eigenvalues of (default mixing * dielectric matrix)
  average eigenvalue GAMMA=   1.5244
  2.7919  2.4581  1.2197  1.0603  1.0603  1.0403  1.0403

 Free energy of the ion-electron system (eV)
  ---------------------------------------------------
  alpha Z        PSCENC =       795.61630399
  Ewald energy   TEWEN  =    -21180.04607332
  -Hartree energ DENC   =     -5192.86422080
  -exchange      EXHF   =         0.00000000
  -V(xc)+E(xc)   XCENC  =       656.81477667
  PAW double counting   =     44442.68245225   -43528.54613160
  entropy T*S    EENTRO =         0.00044138
  eigenvalues    EBANDS =       999.49862619
  atomic energy  EATOM  =     22461.85434800
  Solvation  Ediel_sol  =         0.00000000
  ---------------------------------------------------
  free energy    TOTEN  =      -544.98947723 eV

  energy without entropy =     -544.98991861  energy(sigma->0) =     -544.98962436


--------------------------------------------------------------------------------------------------------




--------------------------------------- Iteration      1(  13)  ---------------------------------------


    POTLOK:  cpu time      0.2524: real time      0.2914
    SETDIJ:  cpu time      0.0835: real time      0.0956
     EDDAV:  cpu time     34.8746: real time     40.9100
       DOS:  cpu time      0.0023: real time      0.0028
    CHARGE:  cpu time      1.3765: real time      1.6244
    MIXING:  cpu time      0.0142: real time      0.0167
    --------------------------------------------
      LOOP:  cpu time     36.6036: real time     42.9409

 eigenvalue-minimisations  :  4328
 total energy-change (2. order) : 0.1310099E-04  (-0.1822574E-04)
 number of electron     384.0000219 magnetization 
 augmentation part       33.3707007 magnetization 

 Broyden mixing:
  rms(total) = 0.17353E-02    rms(broyden)= 0.17348E-02
  rms(prec ) = 0.19350E-02
  weight for this iteration     100.00

 eigenvalues of (default mixing * dielectric matrix)
  average eigenvalue GAMMA=   1.5177
  2.8004  2.4516  1.7963  1.0428  1.0428  1.0885  1.0885  0.8310

 Free energy of the ion-electron system (eV)
  ---------------------------------------------------
  alpha Z        PSCENC =       795.61630399
  Ewald energy   TEWEN  =    -21180.04607332
  -Hartree energ DENC   =     -5192.95923526
  -exchange      EXHF   =         0.00000000
  -V(xc)+E(xc)   XCENC  =       656.82031442
  PAW double counting   =     44448.60660448   -43534.47693539
  entropy T*S    EENTRO =         0.00044017
  eigenvalues    EBANDS =       999.59476878
  atomic energy  EATOM  =     22461.85434800
  Solvation  Ediel_sol  =         0.00000000
  ---------------------------------------------------
  free energy    TOTEN  =      -544.98946413 eV

  energy without entropy =     -544.98990430  energy(sigma->0) =     -544.98961086


--------------------------------------------------------------------------------------------------------




--------------------------------------- Iteration      1(  14)  ---------------------------------------


    POTLOK:  cpu time      0.2533: real time      0.2954
    SETDIJ:  cpu time      0.0830: real time      0.0939
     EDDAV:  cpu time     34.8298: real time     40.3253
       DOS:  cpu time      0.0023: real time      0.0029
    CHARGE:  cpu time      1.3657: real time      1.6028
    MIXING:  cpu time      0.0151: real time      0.0176
    --------------------------------------------
      LOOP:  cpu time     36.5492: real time     42.3380

 eigenvalue-minimisations  :  4312
 total energy-change (2. order) :-0.5889960E-06  (-0.3210729E-05)
 number of electron     384.0000219 magnetization 
 augmentation part       33.3714472 magnetization 

 Broyden mixing:
  rms(total) = 0.81751E-03    rms(broyden)= 0.81685E-03
  rms(prec ) = 0.85835E-03
  weight for this iteration     100.00

 eigenvalues of (default mixing * dielectric matrix)
  average eigenvalue GAMMA=   1.5176
  2.8346  2.4832  2.1753  1.0023  1.0023  1.1061  1.1061  0.9743  0.9743

 Free energy of the ion-electron system (eV)
  ---------------------------------------------------
  alpha Z        PSCENC =       795.61630399
  Ewald energy   TEWEN  =    -21180.04607332
  -Hartree energ DENC   =     -5192.87359671
  -exchange      EXHF   =         0.00000000
  -V(xc)+E(xc)   XCENC  =       656.81240009
  PAW double counting   =     44441.45679165   -43527.32544052
  entropy T*S    EENTRO =         0.00044003
  eigenvalues    EBANDS =       999.51536206
  atomic energy  EATOM  =     22461.85434800
  Solvation  Ediel_sol  =         0.00000000
  ---------------------------------------------------
  free energy    TOTEN  =      -544.98946472 eV

  energy without entropy =     -544.98990475  energy(sigma->0) =     -544.98961140


--------------------------------------------------------------------------------------------------------




--------------------------------------- Iteration      1(  15)  ---------------------------------------


    POTLOK:  cpu time      0.2533: real time      0.2964
    SETDIJ:  cpu time      0.0841: real time      0.0991
     EDDAV:  cpu time     22.9446: real time     27.0153
       DOS:  cpu time      0.0025: real time      0.0031
    --------------------------------------------
      LOOP:  cpu time     23.2846: real time     27.4143

 eigenvalue-minimisations  :  2456
 total energy-change (2. order) : 0.1996232E-06  (-0.8760544E-07)
 number of electron     384.0000219 magnetization 
 augmentation part       33.3714472 magnetization 

 Free energy of the ion-electron system (eV)
  ---------------------------------------------------
  alpha Z        PSCENC =       795.61630399
  Ewald energy   TEWEN  =    -21180.04607332
  -Hartree energ DENC   =     -5192.88490305
  -exchange      EXHF   =         0.00000000
  -V(xc)+E(xc)   XCENC  =       656.81245689
  PAW double counting   =     44437.33030531   -43523.19908166
  entropy T*S    EENTRO =         0.00044009
  eigenvalues    EBANDS =       999.52673922
  atomic energy  EATOM  =     22461.85434800
  Solvation  Ediel_sol  =         0.00000000
  ---------------------------------------------------
  free energy    TOTEN  =      -544.98946452 eV

  energy without entropy =     -544.98990461  energy(sigma->0) =     -544.98961122


--------------------------------------------------------------------------------------------------------




 average (electrostatic) potential at core
  the test charge radii are     1.0406  0.7215
  (the norm of the test charge is              1.0000)
       1 -67.0403       2 -67.0404       3 -67.0403       4 -67.0403       5 -67.0403
       6 -67.0404       7 -67.0403       8 -67.0404       9 -67.0403      10 -67.0404
      11 -67.0403      12 -67.0404      13 -67.0404      14 -67.0404      15 -67.0404
      16 -67.0404      17 -67.0404      18 -67.0404      19 -67.0403      20 -67.0404
      21 -67.0403      22 -67.0404      23 -67.0403      24 -67.0403      25 -67.0404
      26 -67.0404      27 -67.0403      28 -67.0404      29 -67.0403      30 -67.0404
      31 -67.0403      32 -67.0403      33 -63.7019      34 -63.7019      35 -63.7019
      36 -63.7019      37 -63.7019      38 -63.7019      39 -63.7019      40 -63.7019
      41 -63.7019      42 -63.7019      43 -63.7019      44 -63.7019      45 -63.7019
      46 -63.7019      47 -63.7019      48 -63.7019      49 -63.7019      50 -63.7019
      51 -63.7019      52 -63.7019      53 -63.7019      54 -63.7019      55 -63.7019
      56 -63.7019      57 -63.7019      58 -63.7019      59 -63.7019      60 -63.7019
      61 -63.7019      62 -63.7019      63 -63.7019      64 -63.7019      65 -63.4730
      66 -63.4730      67 -63.4730      68 -63.4730      69 -63.4730      70 -63.4730
      71 -63.4730      72 -63.4730      73 -63.4730      74 -63.4730      75 -63.4730
      76 -63.4730      77 -63.4730      78 -63.4730      79 -63.4730      80 -63.4730



 E-fermi :   9.9090     XC(G=0): -13.1598     alpha+bet :-22.0501

 Fermi energy:         9.9089598698

 k-point     1 :       0.1250    0.1250    0.1250
  band No.  band energies     occupation 
      1     -11.6739      2.00000
      2     -10.8317      2.00000
      3     -10.7891      2.00000
      4     -10.3179      2.00000
      5     -10.2561      2.00000
      6     -10.2112      2.00000
      7     -10.0387      2.00000
      8      -9.6035      2.00000
      9      -9.5808      2.00000
     10      -9.4878      2.00000
     11      -9.4774      2.00000
     12      -9.2530      2.00000
     13      -9.1093      2.00000
     14      -9.0506      2.00000
     15      -8.9283      2.00000
     16      -8.7082      2.00000
     17      -8.6686      2.00000
     18      -8.5236      2.00000
     19      -8.4938      2.00000
     20      -8.4652      2.00000
     21      -8.4429      2.00000
     22      -8.4339      2.00000
     23      -8.3149      2.00000
     24      -8.2232      2.00000
     25      -8.2005      2.00000
     26      -8.1872      2.00000
     27      -8.1117      2.00000
     28      -8.0082      2.00000
     29      -7.9288      2.00000
     30      -7.7722      2.00000
     31      -7.7658      2.00000
     32      -7.7631      2.00000
     33      -7.6198      2.00000
     34      -7.5767      2.00000
     35      -7.5252      2.00000
     36      -7.5193      2.00000
     37      -7.5044      2.00000
     38      -7.4919      2.00000
     39      -7.4740      2.00000
     40      -7.4247      2.00000
     41      -7.3409      2.00000
     42      -7.3377      2.00000
     43      -7.3149      2.00000
     44      -7.2627      2.00000
     45      -7.1423      2.00000
     46      -7.0667      2.00000
     47      -6.9524      2.00000
     48      -6.9381      2.00000
     49       1.8752      2.00000
     50       1.9159      2.00000
     51       1.9636      2.00000
     52       2.0670      2.00000
     53       2.0919      2.00000
     54       2.0934      2.00000
     55       2.2176      2.00000
     56       2.5098      2.00000
     57       2.5349      2.00000
     58       2.5368      2.00000
     59       2.5705      2.00000
     60       2.5850      2.00000
     61       2.5971      2.00000
     62       2.6970      2.00000
     63       2.7658      2.00000
     64       2.8124      2.00000
     65       2.8160      2.00000
     66       2.8328      2.00000
     67       2.9388      2.00000
     68       3.1685      2.00000
     69       3.1937      2.00000
     70       3.2549      2.00000
     71       3.3632      2.00000
     72       3.4315      2.00000
     73       3.5655      2.00000
     74       3.6135      2.00000
     75       3.6203      2.00000
     76       3.7671      2.00000
     77       3.7920      2.00000
     78       3.7930      2.00000
     79       3.9008      2.00000
     80       3.9535      2.00000
     81       4.0092      2.00000
     82       4.0153      2.00000
     83       4.0388      2.00000
     84       4.1493      2.00000
     85       4.1861      2.00000
     86       4.1902      2.00000
     87       4.2899      2.00000
     88       4.3281      2.00000
     89       4.3416      2.00000
     90       4.3783      2.00000
     91       4.4604      2.00000
     92       4.5648      2.00000
     93       4.6980      2.00000
     94       4.7021      2.00000
     95       4.8534      2.00000
     96       5.0222      2.00000
     97       5.1810      2.00000
     98       5.3361      2.00000
     99       5.4165      2.00000
    100       5.4406      2.00000
    101       5.4629      2.00000
    102       5.4748      2.00000
    103       5.5321      2.00000
    104       5.6869      2.00000
    105       5.7104      2.00000
    106       5.7662      2.00000
    107       5.9733      2.00000
    108       6.0324      2.00000
    109       6.0916      2.00000
    110       6.1643      2.00000
    111       6.2140      2.00000
    112       6.2523      2.00000
    113       6.3187      2.00000
    114       6.3688      2.00000
    115       6.3998      2.00000
    116       6.4077      2.00000
    117       6.4501      2.00000
    118       6.5058      2.00000
    119       6.5203      2.00000
    120       6.6944      2.00000
    121       6.6988      2.00000
    122       6.7459      2.00000
    123       6.7804      2.00000
    124       6.7918      2.00000
    125       6.8231      2.00000
    126       6.8576      2.00000
    127       6.9586      2.00000
    128       6.9755      2.00000
    129       7.1144      2.00000
    130       7.2035      2.00000
    131       7.2599      2.00000
    132       7.2980      2.00000
    133       7.4111      2.00000
    134       7.4117      2.00000
    135       7.5790      2.00000
    136       7.5811      2.00000
    137       7.5945      2.00000
    138       7.6346      2.00000
    139       7.6704      2.00000
    140       7.7753      2.00000
    141       7.7771      2.00000
    142       7.7876      2.00000
    143       7.8322      2.00000
    144       7.8435      2.00000
    145       7.8563      2.00000
    146       7.8791      2.00000
    147       7.9329      2.00000
    148       7.9422      2.00000
    149       7.9911      2.00000
    150       8.0495      2.00000
    151       8.1595      2.00000
    152       8.1733      2.00000
    153       8.1758      2.00000
    154       8.2324      2.00000
    155       8.2425      2.00000
    156       8.2513      2.00000
    157       8.3632      2.00000
    158       8.3727      2.00000
    159       8.4758      2.00000
[...]
     0.000000000  9.090998890  0.000000000     0.000000000  0.109998913  0.000000000
     0.000000000  0.000000000  6.461141022     0.000000000  0.000000000  0.154771425

  length of vectors
     8.839783590  9.090998890  6.461141022     0.113124941  0.109998913  0.154771425


 FORCES acting on ions
    electron-ion (+dipol)            ewald-force                    non-local-force                 convergence-correction
 -----------------------------------------------------------------------------------------------
   0.409E+01 -.358E+01 0.194E+02   -.388E+01 0.833E+00 -.186E+02   -.242E+00 0.346E+01 -.133E+01   0.134E-03 -.251E-04 0.140E-03
   0.409E+01 -.358E+01 0.194E+02   -.388E+01 0.833E+00 -.186E+02   -.242E+00 0.346E+01 -.133E+01   0.134E-03 -.221E-04 0.140E-03
   0.409E+01 -.358E+01 0.194E+02   -.388E+01 0.833E+00 -.186E+02   -.242E+00 0.346E+01 -.133E+01   0.132E-03 -.251E-04 0.140E-03
   0.409E+01 -.358E+01 0.194E+02   -.388E+01 0.833E+00 -.186E+02   -.242E+00 0.346E+01 -.133E+01   0.132E-03 -.221E-04 0.140E-03
   0.409E+01 0.358E+01 -.194E+02   -.388E+01 -.833E+00 0.186E+02   -.242E+00 -.346E+01 0.133E+01   0.134E-03 0.236E-04 -.140E-03
   0.409E+01 0.358E+01 -.194E+02   -.388E+01 -.833E+00 0.186E+02   -.242E+00 -.346E+01 0.133E+01   0.134E-03 0.235E-04 -.140E-03
   0.409E+01 0.358E+01 -.194E+02   -.388E+01 -.833E+00 0.186E+02   -.242E+00 -.346E+01 0.133E+01   0.132E-03 0.236E-04 -.140E-03
   0.409E+01 0.358E+01 -.194E+02   -.388E+01 -.833E+00 0.186E+02   -.242E+00 -.346E+01 0.133E+01   0.132E-03 0.235E-04 -.140E-03
   -.409E+01 -.358E+01 -.194E+02   0.388E+01 0.833E+00 0.186E+02   0.242E+00 0.346E+01 0.133E+01   -.132E-03 -.231E-04 -.141E-03
   -.409E+01 -.358E+01 -.194E+02   0.388E+01 0.833E+00 0.186E+02   0.242E+00 0.346E+01 0.133E+01   -.132E-03 -.240E-04 -.141E-03
   -.409E+01 -.358E+01 -.194E+02   0.388E+01 0.833E+00 0.186E+02   0.242E+00 0.346E+01 0.133E+01   -.134E-03 -.231E-04 -.141E-03
   -.409E+01 -.358E+01 -.194E+02   0.388E+01 0.833E+00 0.186E+02   0.242E+00 0.346E+01 0.133E+01   -.134E-03 -.240E-04 -.141E-03
   -.409E+01 0.358E+01 0.194E+02   0.388E+01 -.833E+00 -.186E+02   0.242E+00 -.346E+01 -.133E+01   -.132E-03 0.251E-04 0.140E-03
   -.409E+01 0.358E+01 0.194E+02   0.388E+01 -.833E+00 -.186E+02   0.242E+00 -.346E+01 -.133E+01   -.132E-03 0.220E-04 0.140E-03
   -.409E+01 0.358E+01 0.194E+02   0.388E+01 -.833E+00 -.186E+02   0.242E+00 -.346E+01 -.133E+01   -.134E-03 0.251E-04 0.140E-03
   -.409E+01 0.358E+01 0.194E+02   0.388E+01 -.833E+00 -.186E+02   0.242E+00 -.346E+01 -.133E+01   -.134E-03 0.220E-04 0.140E-03
   -.409E+01 0.358E+01 -.194E+02   0.388E+01 -.833E+00 0.186E+02   0.242E+00 -.346E+01 0.133E+01   -.133E-03 0.251E-04 -.140E-03
   -.409E+01 0.358E+01 -.194E+02   0.388E+01 -.833E+00 0.186E+02   0.242E+00 -.346E+01 0.133E+01   -.133E-03 0.220E-04 -.140E-03
   -.409E+01 0.358E+01 -.194E+02   0.388E+01 -.833E+00 0.186E+02   0.242E+00 -.346E+01 0.133E+01   -.133E-03 0.251E-04 -.140E-03
   -.409E+01 0.358E+01 -.194E+02   0.388E+01 -.833E+00 0.186E+02   0.242E+00 -.346E+01 0.133E+01   -.133E-03 0.220E-04 -.140E-03
   -.409E+01 -.358E+01 0.194E+02   0.388E+01 0.833E+00 -.186E+02   0.242E+00 0.346E+01 -.133E+01   -.133E-03 -.231E-04 0.140E-03
   -.409E+01 -.358E+01 0.194E+02   0.388E+01 0.833E+00 -.186E+02   0.242E+00 0.346E+01 -.133E+01   -.133E-03 -.240E-04 0.140E-03
   -.409E+01 -.358E+01 0.194E+02   0.388E+01 0.833E+00 -.186E+02   0.242E+00 0.346E+01 -.133E+01   -.133E-03 -.231E-04 0.140E-03
   -.409E+01 -.358E+01 0.194E+02   0.388E+01 0.833E+00 -.186E+02   0.242E+00 0.346E+01 -.133E+01   -.133E-03 -.240E-04 0.140E-03
   0.409E+01 0.358E+01 0.194E+02   -.388E+01 -.833E+00 -.186E+02   -.242E+00 -.346E+01 -.133E+01   0.133E-03 0.236E-04 0.140E-03
   0.409E+01 0.358E+01 0.194E+02   -.388E+01 -.833E+00 -.186E+02   -.242E+00 -.346E+01 -.133E+01   0.133E-03 0.235E-04 0.140E-03
   0.409E+01 0.358E+01 0.194E+02   -.388E+01 -.833E+00 -.186E+02   -.242E+00 -.346E+01 -.133E+01   0.133E-03 0.236E-04 0.140E-03
   0.409E+01 0.358E+01 0.194E+02   -.388E+01 -.833E+00 -.186E+02   -.242E+00 -.346E+01 -.133E+01   0.133E-03 0.235E-04 0.140E-03
   0.409E+01 -.358E+01 -.194E+02   -.388E+01 0.833E+00 0.186E+02   -.242E+00 0.346E+01 0.133E+01   0.133E-03 -.251E-04 -.141E-03
   0.409E+01 -.358E+01 -.194E+02   -.388E+01 0.833E+00 0.186E+02   -.242E+00 0.346E+01 0.133E+01   0.133E-03 -.221E-04 -.140E-03
   0.409E+01 -.358E+01 -.194E+02   -.388E+01 0.833E+00 0.186E+02   -.242E+00 0.346E+01 0.133E+01   0.133E-03 -.251E-04 -.141E-03
   0.409E+01 -.358E+01 -.194E+02   -.388E+01 0.833E+00 0.186E+02   -.242E+00 0.346E+01 0.133E+01   0.133E-03 -.221E-04 -.140E-03
   0.790E+01 0.388E+01 -.214E+02   -.645E+01 -.306E+01 0.230E+02   -.122E+01 -.618E+00 -.128E+01   -.500E-04 0.496E-04 -.650E-03
   0.790E+01 0.388E+01 -.214E+02   -.645E+01 -.306E+01 0.230E+02   -.122E+01 -.618E+00 -.128E+01   -.500E-04 0.563E-04 -.651E-03
   0.790E+01 0.388E+01 -.214E+02   -.645E+01 -.306E+01 0.230E+02   -.122E+01 -.618E+00 -.128E+01   -.532E-04 0.496E-04 -.650E-03
   0.790E+01 0.388E+01 -.214E+02   -.645E+01 -.306E+01 0.230E+02   -.122E+01 -.618E+00 -.128E+01   -.532E-04 0.563E-04 -.650E-03
   0.790E+01 -.388E+01 0.214E+02   -.645E+01 0.306E+01 -.230E+02   -.122E+01 0.618E+00 0.128E+01   -.500E-04 -.534E-04 0.651E-03
   0.790E+01 -.388E+01 0.214E+02   -.645E+01 0.306E+01 -.230E+02   -.122E+01 0.618E+00 0.128E+01   -.500E-04 -.525E-04 0.651E-03
   0.790E+01 -.388E+01 0.214E+02   -.645E+01 0.306E+01 -.230E+02   -.122E+01 0.618E+00 0.128E+01   -.532E-04 -.534E-04 0.651E-03
   0.790E+01 -.388E+01 0.214E+02   -.645E+01 0.306E+01 -.230E+02   -.122E+01 0.618E+00 0.128E+01   -.532E-04 -.525E-04 0.651E-03
   -.790E+01 0.388E+01 0.214E+02   0.645E+01 -.306E+01 -.230E+02   0.122E+01 -.618E+00 0.128E+01   0.533E-04 0.545E-04 0.651E-03
   -.790E+01 0.388E+01 0.214E+02   0.645E+01 -.306E+01 -.230E+02   0.122E+01 -.618E+00 0.128E+01   0.533E-04 0.515E-04 0.651E-03
   -.790E+01 0.388E+01 0.214E+02   0.645E+01 -.306E+01 -.230E+02   0.122E+01 -.618E+00 0.128E+01   0.496E-04 0.545E-04 0.651E-03
   -.790E+01 0.388E+01 0.214E+02   0.645E+01 -.306E+01 -.230E+02   0.122E+01 -.618E+00 0.128E+01   0.496E-04 0.515E-04 0.651E-03
   -.790E+01 -.388E+01 -.214E+02   0.645E+01 0.306E+01 0.230E+02   0.122E+01 0.618E+00 -.128E+01   0.533E-04 -.493E-04 -.652E-03
   -.790E+01 -.388E+01 -.214E+02   0.645E+01 0.306E+01 0.230E+02   0.122E+01 0.618E+00 -.128E+01   0.533E-04 -.567E-04 -.652E-03
   -.790E+01 -.388E+01 -.214E+02   0.645E+01 0.306E+01 0.230E+02   0.122E+01 0.618E+00 -.128E+01   0.496E-04 -.492E-04 -.652E-03
   -.790E+01 -.388E+01 -.214E+02   0.645E+01 0.306E+01 0.230E+02   0.122E+01 0.618E+00 -.128E+01   0.496E-04 -.567E-04 -.652E-03
   -.790E+01 -.388E+01 0.214E+02   0.645E+01 0.306E+01 -.230E+02   0.122E+01 0.618E+00 0.128E+01   0.509E-04 -.492E-04 0.651E-03
   -.790E+01 -.388E+01 0.214E+02   0.645E+01 0.306E+01 -.230E+02   0.122E+01 0.618E+00 0.128E+01   0.509E-04 -.567E-04 0.651E-03
   -.790E+01 -.388E+01 0.214E+02   0.645E+01 0.306E+01 -.230E+02   0.122E+01 0.618E+00 0.128E+01   0.524E-04 -.493E-04 0.651E-03
   -.790E+01 -.388E+01 0.214E+02   0.645E+01 0.306E+01 -.230E+02   0.122E+01 0.618E+00 0.128E+01   0.523E-04 -.567E-04 0.652E-03
   -.790E+01 0.388E+01 -.214E+02   0.645E+01 -.306E+01 0.230E+02   0.122E+01 -.618E+00 -.128E+01   0.509E-04 0.545E-04 -.650E-03
   -.790E+01 0.388E+01 -.214E+02   0.645E+01 -.306E+01 0.230E+02   0.122E+01 -.618E+00 -.128E+01   0.509E-04 0.515E-04 -.650E-03
   -.790E+01 0.388E+01 -.214E+02   0.645E+01 -.306E+01 0.230E+02   0.122E+01 -.618E+00 -.128E+01   0.523E-04 0.545E-04 -.650E-03
   -.790E+01 0.388E+01 -.214E+02   0.645E+01 -.306E+01 0.230E+02   0.122E+01 -.618E+00 -.128E+01   0.523E-04 0.515E-04 -.650E-03
   0.790E+01 -.388E+01 -.214E+02   -.645E+01 0.306E+01 0.230E+02   -.122E+01 0.618E+00 -.128E+01   -.506E-04 -.534E-04 -.652E-03
   0.790E+01 -.388E+01 -.214E+02   -.645E+01 0.306E+01 0.230E+02   -.122E+01 0.618E+00 -.128E+01   -.506E-04 -.525E-04 -.652E-03
   0.790E+01 -.388E+01 -.214E+02   -.645E+01 0.306E+01 0.230E+02   -.122E+01 0.618E+00 -.128E+01   -.526E-04 -.534E-04 -.652E-03
   0.790E+01 -.388E+01 -.214E+02   -.645E+01 0.306E+01 0.230E+02   -.122E+01 0.618E+00 -.128E+01   -.526E-04 -.526E-04 -.652E-03
   0.790E+01 0.388E+01 0.214E+02   -.645E+01 -.306E+01 -.230E+02   -.122E+01 -.618E+00 0.128E+01   -.506E-04 0.496E-04 0.651E-03
   0.790E+01 0.388E+01 0.214E+02   -.645E+01 -.306E+01 -.230E+02   -.122E+01 -.618E+00 0.128E+01   -.506E-04 0.563E-04 0.651E-03
   0.790E+01 0.388E+01 0.214E+02   -.645E+01 -.306E+01 -.230E+02   -.122E+01 -.618E+00 0.128E+01   -.526E-04 0.496E-04 0.651E-03
   0.790E+01 0.388E+01 0.214E+02   -.645E+01 -.306E+01 -.230E+02   -.122E+01 -.618E+00 0.128E+01   -.526E-04 0.563E-04 0.651E-03
   -.233E+02 -.383E-04 -.333E-04   0.247E+02 0.137E-04 0.468E-04   -.106E+01 -.120E-19 -.553E-19   -.228E-03 -.219E-05 -.113E-05
   -.233E+02 -.356E-04 -.283E-04   0.247E+02 -.490E-05 0.557E-05   -.106E+01 -.174E-18 -.323E-19   -.228E-03 0.219E-05 -.598E-06
   -.233E+02 -.383E-04 -.333E-04   0.247E+02 0.137E-04 0.468E-04   -.106E+01 -.114E-18 -.133E-18   -.231E-03 -.219E-05 -.113E-05
   -.233E+02 -.356E-04 -.283E-04   0.247E+02 -.490E-05 0.557E-05   -.106E+01 -.502E-19 -.482E-20   -.231E-03 0.219E-05 -.598E-06
   0.233E+02 -.367E-04 -.376E-04   -.247E+02 -.166E-05 -.217E-04   0.106E+01 0.159E-19 -.149E-18   0.231E-03 0.299E-05 0.632E-06
   0.233E+02 -.388E-04 -.325E-04   -.247E+02 0.180E-04 -.496E-04   0.106E+01 -.344E-19 -.698E-19   0.231E-03 -.300E-05 0.112E-05
   0.233E+02 -.367E-04 -.376E-04   -.247E+02 -.166E-05 -.217E-04   0.106E+01 0.177E-18 -.151E-19   0.228E-03 0.299E-05 0.632E-06
   0.233E+02 -.388E-04 -.325E-04   -.247E+02 0.180E-04 -.496E-04   0.106E+01 0.207E-19 -.646E-19   0.228E-03 -.300E-05 0.112E-05
   0.233E+02 -.386E-04 -.490E-04   -.247E+02 -.456E-05 0.137E-04   0.106E+01 0.684E-19 0.138E-18   0.229E-03 0.299E-05 -.623E-06
   0.233E+02 -.407E-04 -.541E-04   -.247E+02 0.151E-04 0.416E-04   0.106E+01 0.104E-19 0.332E-19   0.229E-03 -.300E-05 -.111E-05
   0.233E+02 -.386E-04 -.490E-04   -.247E+02 -.456E-05 0.137E-04   0.106E+01 0.529E-19 0.248E-19   0.230E-03 0.299E-05 -.623E-06
   0.233E+02 -.407E-04 -.541E-04   -.247E+02 0.151E-04 0.416E-04   0.106E+01 0.112E-18 0.369E-19   0.230E-03 -.300E-05 -.111E-05
   -.233E+02 -.420E-04 -.117E-04   0.247E+02 0.166E-04 -.548E-04   -.106E+01 -.623E-19 0.141E-18   -.228E-03 -.219E-05 0.114E-05
   -.233E+02 -.394E-04 -.167E-04   0.247E+02 -.200E-05 -.136E-04   -.106E+01 -.120E-18 0.323E-19   -.228E-03 0.219E-05 0.608E-06
   -.233E+02 -.420E-04 -.117E-04   0.247E+02 0.166E-04 -.548E-04   -.106E+01 -.168E-18 -.109E-18   -.230E-03 -.219E-05 0.114E-05
   -.233E+02 -.394E-04 -.167E-04   0.247E+02 -.200E-05 -.136E-04   -.106E+01 -.167E-19 0.262E-19   -.230E-03 0.219E-05 0.608E-06
 -----------------------------------------------------------------------------------------------
   0.442E-02 -.205E-02 -.714E-03   -.107E-12 0.234E-12 0.930E-13   0.000E+00 -.777E-15 0.666E-15   0.979E-07 -.270E-07 0.230E-08


 POSITION                                       TOTAL-FORCE (eV/Angst)
 -----------------------------------------------------------------------------------
      1.11514      0.14270      2.51977        -0.030689      0.713904     -0.503710
      1.11514      4.68820      2.51977        -0.030689      0.713904     -0.503710
      5.53504      0.14270      2.51977        -0.030689      0.713904     -0.503710
      5.53504      4.68820      2.51977        -0.030689      0.713904     -0.503710
      1.11514      2.13005      3.94137        -0.030689     -0.713904      0.503710
      1.11514      6.67555      3.94137        -0.030689     -0.713904      0.503710
      5.53504      2.13005      3.94137        -0.030689     -0.713904      0.503710
      5.53504      6.67555      3.94137        -0.030689     -0.713904      0.503710
      1.09480      2.41545      0.71080         0.030689      0.713904      0.503710
      1.09480      6.96095      0.71080         0.030689      0.713904      0.503710
      5.51469      2.41545      0.71080         0.030689      0.713904      0.503710
      5.51469      6.96095      0.71080         0.030689      0.713904      0.503710
      1.09480      4.40280      5.75034         0.030689     -0.713904     -0.503710
      1.09480      8.94830      5.75034         0.030689     -0.713904     -0.503710
      5.51469      4.40280      5.75034         0.030689     -0.713904     -0.503710
      5.51469      8.94830      5.75034         0.030689     -0.713904     -0.503710
      3.30475      4.40280      3.94137         0.030689     -0.713904      0.503710
      3.30475      8.94830      3.94137         0.030689     -0.713904      0.503710
      7.72464      4.40280      3.94137         0.030689     -0.713904      0.503710
      7.72464      8.94830      3.94137         0.030689     -0.713904      0.503710
      3.30475      2.41545      2.51977         0.030689      0.713904     -0.503710
      3.30475      6.96095      2.51977         0.030689      0.713904     -0.503710
      7.72464      2.41545      2.51977         0.030689      0.713904     -0.503710
      7.72464      6.96095      2.51977         0.030689      0.713904     -0.503710
      3.32509      2.13005      5.75034        -0.030689     -0.713904     -0.503710
      3.32509      6.67555      5.75034        -0.030689     -0.713904     -0.503710
      7.74498      2.13005      5.75034        -0.030689     -0.713904     -0.503710
      7.74498      6.67555      5.75034        -0.030689     -0.713904     -0.503710
      3.32509      0.14270      0.71080        -0.030689      0.713904      0.503710
      3.32509      4.68820      0.71080        -0.030689      0.713904      0.503710
      7.74498      0.14270      0.71080        -0.030689      0.713904      0.503710
      7.74498      4.68820      0.71080        -0.030689      0.713904      0.503710
      0.47325      0.46542      4.22655         0.231469      0.197178      0.306089
      0.47325      5.01092      4.22655         0.231469      0.197178      0.306089
      4.89314      0.46542      4.22655         0.231469      0.197178      0.306089
      4.89314      5.01092      4.22655         0.231469      0.197178      0.306089
      0.47325      1.80733      2.23460         0.231469     -0.197178     -0.306089
      0.47325      6.35283      2.23460         0.231469     -0.197178     -0.306089
      4.89314      1.80733      2.23460         0.231469     -0.197178     -0.306089
      4.89314      6.35283      2.23460         0.231469     -0.197178     -0.306089
      1.73670      2.73817      5.46517        -0.231469      0.197178     -0.306089
      1.73670      7.28367      5.46517        -0.231469      0.197178     -0.306089
      6.15659      2.73817      5.46517        -0.231469      0.197178     -0.306089
      6.15659      7.28367      5.46517        -0.231469      0.197178     -0.306089
      1.73670      4.08008      0.99598        -0.231469     -0.197178      0.306089
      1.73670      8.62558      0.99598        -0.231469     -0.197178      0.306089
      6.15659      4.08008      0.99598        -0.231469     -0.197178      0.306089
      6.15659      8.62558      0.99598        -0.231469     -0.197178      0.306089
      3.94664      4.08008      2.23460        -0.231469     -0.197178     -0.306089
      3.94664      8.62558      2.23460        -0.231469     -0.197178     -0.306089
      8.36653      4.08008      2.23460        -0.231469     -0.197178     -0.306089
      8.36653      8.62558      2.23460        -0.231469     -0.197178     -0.306089
      3.94664      2.73817      4.22655        -0.231469      0.197178      0.306089
      3.94664      7.28367      4.22655        -0.231469      0.197178      0.306089
      8.36653      2.73817      4.22655        -0.231469      0.197178      0.306089
      8.36653      7.28367      4.22655        -0.231469      0.197178      0.306089
      2.68319      1.80733      0.99598         0.231469     -0.197178      0.306089
      2.68319      6.35283      0.99598         0.231469     -0.197178      0.306089
      7.10309      1.80733      0.99598         0.231469     -0.197178      0.306089
      7.10309      6.35283      0.99598         0.231469     -0.197178      0.306089
      2.68319      0.46542      5.46517         0.231469      0.197178     -0.306089
      2.68319      5.01092      5.46517         0.231469      0.197178     -0.306089
      7.10309      0.46542      5.46517         0.231469      0.197178     -0.306089
      7.10309      5.01092      5.46517         0.231469      0.197178     -0.306089
      0.22183      1.13637      0.00000         0.341786      0.000000     -0.000000
      0.22183      5.68187      0.00000         0.341786      0.000000     -0.000000
      4.64172      1.13637      0.00000         0.341786      0.000000     -0.000000
      4.64172      5.68187      0.00000         0.341786      0.000000     -0.000000
      1.98812      3.40912      3.23057        -0.341786      0.000000     -0.000000
      1.98812      7.95462      3.23057        -0.341786      0.000000     -0.000000
      6.40801      3.40912      3.23057        -0.341786      0.000000     -0.000000
      6.40801      7.95462      3.23057        -0.341786      0.000000     -0.000000
      4.19807      3.40912      0.00000        -0.341786      0.000000     -0.000000
      4.19807      7.95462      0.00000        -0.341786      0.000000     -0.000000
      8.61796      3.40912      0.00000        -0.341786      0.000000     -0.000000
      8.61796      7.95462      0.00000        -0.341786      0.000000     -0.000000
      2.43177      1.13637      3.23057         0.341786      0.000000     -0.000000
      2.43177      5.68187      3.23057         0.341786      0.000000     -0.000000
      6.85166      1.13637      3.23057         0.341786      0.000000     -0.000000
      6.85166      5.68187      3.23057         0.341786      0.000000     -0.000000
 -----------------------------------------------------------------------------------
    total drift:                                0.004416     -0.002052     -0.000714


--------------------------------------------------------------------------------------------------------



  FREE ENERGIE OF THE ION-ELECTRON SYSTEM (eV)
  ---------------------------------------------------
  free  energy   TOTEN  =      -544.98946452 eV

  energy  without entropy=     -544.98990461  energy(sigma->0) =     -544.98961122



--------------------------------------------------------------------------------------------------------


    POTLOK:  cpu time      0.3279: real time      0.3801


--------------------------------------------------------------------------------------------------------


 writing wavefunctions
     LOOP+:  cpu time    564.3200: real time    656.6246
    4ORBIT:  cpu time      0.0001: real time      0.0005

 total amount of memory used by VASP MPI-rank0   398102. kBytes
=======================================================================

   base      :      30000. kBytes
   nonlr-proj:       9703. kBytes
   fftplans  :      20716. kBytes
   grid      :      36753. kBytes
   one-center:        245. kBytes
   wavefun   :     300685. kBytes

  
  
 General timing and accounting informations for this job:
 ========================================================
  
                  Total CPU time used (sec):      571.542
                            User time (sec):      484.738
                          System time (sec):       86.804
                         Elapsed time (sec):      664.716
  
                   Maximum memory used (kb):      577704.
                   Average memory used (kb):          N/A
  
                          Minor page faults:       264339
                          Major page faults:          510
                 Voluntary context switches:         1243
