20
virial="2.40072 0.0 0.0 0.0 2.28364 0.0 0.0 0.0 2.13741" Lattice="4.790529725774153 0.0 0.0 0.0 4.9267797381749725 0.0 0.0 0.0 7.00309021897234" Properties=species:S:1:pos:R:3:forces:R:3 energy=-147.86626638 pbc="T T T"
Al       1.20865000       0.15468000       2.73113000       0.00137700       0.01710600      -0.01263200
Al       1.20865000       2.30871000       4.27197000       0.00137700      -0.01710600       0.01263200
Al       1.18661000       2.61807000       0.77042000      -0.00137700       0.01710600       0.01263200
Al       1.18661000       4.77210000       6.23267000      -0.00137700      -0.01710600      -0.01263200
Al       3.58188000       4.77210000       4.27197000      -0.00137700      -0.01710600       0.01263200
Al       3.58188000       2.61807000       2.73113000      -0.00137700       0.01710600      -0.01263200
Al       3.60392000       2.30871000       6.23267000       0.00137700      -0.01710600      -0.01263200
Al       3.60392000       0.15468000       0.77042000       0.00137700       0.01710600       0.01263200
O        0.51294000       0.50445000       4.58106000       0.00574100       0.00654700       0.00883800
O        0.51294000       1.95894000       2.42204000       0.00574100      -0.00654700      -0.00883800
O        1.88233000       2.96784000       5.92358000      -0.00574100       0.00654700      -0.00883800
O        1.88233000       4.42233000       1.07951000      -0.00574100      -0.00654700       0.00883800
O        4.27759000       4.42233000       2.42204000      -0.00574100      -0.00654700      -0.00883800
O        4.27759000       2.96784000       4.58106000      -0.00574100       0.00654700       0.00883800
O        2.90820000       1.95894000       1.07951000       0.00574100      -0.00654700       0.00883800
O        2.90820000       0.50445000       5.92358000       0.00574100       0.00654700      -0.00883800
O        0.24043000       1.23169000       0.00000000       0.00909200      -0.00000000       0.00000000
O        2.15484000       3.69508000       3.50155000      -0.00909200      -0.00000000       0.00000000
O        4.55010000       3.69508000       0.00000000      -0.00909200      -0.00000000       0.00000000
O        2.63569000       1.23169000       3.50155000       0.00909200      -0.00000000       0.00000000
20
virial="1.52753 0.0 0.0 0.0 1.49561 0.0 0.0 0.0 1.36199" Lattice="4.795334670333606 0.0 0.0 0.0 4.931721342726803 0.0 0.0 0.0 7.010114381679434" Properties=species:S:1:pos:R:3:forces:R:3 energy=-147.89340636 pbc="T T T"
Al       1.20986000       0.15484000       2.73386000       0.00017700       0.01048400      -0.00958000
Al       1.20986000       2.31102000       4.27625000       0.00017700      -0.01048400       0.00958000
Al       1.18780000       2.62070000       0.77119000      -0.00017700       0.01048400       0.00958000
Al       1.18780000       4.77688000       6.23892000      -0.00017700      -0.01048400      -0.00958000
Al       3.58547000       4.77688000       4.27625000      -0.00017700      -0.01048400       0.00958000
Al       3.58547000       2.62070000       2.73386000      -0.00017700       0.01048400      -0.00958000
Al       3.60753000       2.31102000       6.23892000       0.00017700      -0.01048400      -0.00958000
Al       3.60753000       0.15484000       0.77119000       0.00017700       0.01048400       0.00958000
O        0.51345000       0.50496000       4.58565000       0.00393000       0.00436000       0.00550300
O        0.51345000       1.96090000       2.42446000       0.00393000      -0.00436000      -0.00550300
O        1.88422000       2.97082000       5.92952000      -0.00393000       0.00436000      -0.00550300
O        1.88422000       4.42676000       1.08059000      -0.00393000      -0.00436000       0.00550300
O        4.28189000       4.42676000       2.42446000      -0.00393000      -0.00436000      -0.00550300
O        4.28189000       2.97082000       4.58565000      -0.00393000       0.00436000       0.00550300
O        2.91112000       1.96090000       1.08059000       0.00393000      -0.00436000       0.00550300
O        2.91112000       0.50496000       5.92952000       0.00393000       0.00436000      -0.00550300
O        0.24067000       1.23293000       0.00000000       0.00627300       0.00000000       0.00000000
O        2.15700000       3.69879000       3.50506000      -0.00627300       0.00000000       0.00000000
O        4.55466000       3.69879000       0.00000000      -0.00627300       0.00000000       0.00000000
O        2.63834000       1.23293000       3.50506000       0.00627300       0.00000000       0.00000000
20
virial="0.66004 0.0 0.0 0.0 0.63374 0.0 0.0 0.0 0.55129" Lattice="4.800139614893058 0.0 0.0 0.0 4.936662947278633 0.0 0.0 0.0 7.017138544386527" Properties=species:S:1:pos:R:3:forces:R:3 energy=-147.91325413 pbc="T T T"
Al       1.21108000       0.15499000       2.73660000       0.00136200       0.00669100      -0.00460400
Al       1.21108000       2.31334000       4.28053000       0.00136200      -0.00669100       0.00460400
Al       1.18899000       2.62332000       0.77197000      -0.00136200       0.00669100       0.00460400
Al       1.18899000       4.78167000       6.24517000      -0.00136200      -0.00669100      -0.00460400
Al       3.58906000       4.78167000       4.28053000      -0.00136200      -0.00669100       0.00460400
Al       3.58906000       2.62332000       2.73660000      -0.00136200       0.00669100      -0.00460400
Al       3.61115000       2.31334000       6.24517000       0.00136200      -0.00669100      -0.00460400
Al       3.61115000       0.15499000       0.77197000       0.00136200       0.00669100       0.00460400
O        0.51396000       0.50546000       4.59024000       0.00193200       0.00207100       0.00273500
O        0.51396000       1.96287000       2.42689000       0.00193200      -0.00207100      -0.00273500
O        1.88611000       2.97380000       5.93546000      -0.00193200       0.00207100      -0.00273500
O        1.88611000       4.43120000       1.08168000      -0.00193200      -0.00207100       0.00273500
O        4.28618000       4.43120000       2.42689000      -0.00193200      -0.00207100      -0.00273500
O        4.28618000       2.97380000       4.59024000      -0.00193200       0.00207100       0.00273500
O        2.91403000       1.96287000       1.08168000       0.00193200      -0.00207100       0.00273500
O        2.91403000       0.50546000       5.93546000       0.00193200       0.00207100      -0.00273500
O        0.24091000       1.23417000       0.00000000       0.00271200       0.00000000       0.00000000
O        2.15916000       3.70250000       3.50857000      -0.00271200       0.00000000       0.00000000
O        4.55923000       3.70250000       0.00000000      -0.00271200       0.00000000       0.00000000
O        2.64098000       1.23417000       3.50857000       0.00271200       0.00000000       0.00000000
20
virial="-0.21044 0.0 0.0 0.0 -0.21363 0.0 0.0 0.0 -0.20068" Lattice="4.804944559452511 0.0 0.0 0.0 4.941604551830464 0.0 0.0 0.0 7.024162707093621" Properties=species:S:1:pos:R:3:forces:R:3 energy=-147.93343435 pbc="T T T"
Al       1.21229000       0.15515000       2.73934000       0.00009100      -0.00040600       0.00000200
Al       1.21229000       2.31565000       4.28482000       0.00009100       0.00040600      -0.00000200
Al       1.19018000       2.62595000       0.77274000      -0.00009100      -0.00040600      -0.00000200
Al       1.19018000       4.78646000       6.25142000      -0.00009100       0.00040600       0.00000200
Al       3.59266000       4.78646000       4.28482000      -0.00009100       0.00040600      -0.00000200
Al       3.59266000       2.62595000       2.73934000      -0.00009100      -0.00040600       0.00000200
Al       3.61476000       2.31565000       6.25142000       0.00009100       0.00040600       0.00000200
Al       3.61476000       0.15515000       0.77274000       0.00009100      -0.00040600      -0.00000200
O        0.51448000       0.50597000       4.59484000       0.00011200       0.00046600       0.00034200
O        0.51448000       1.96483000       2.42932000       0.00011200      -0.00046600      -0.00034200
O        1.88799000       2.97677000       5.94140000      -0.00011200       0.00046600      -0.00034200
O        1.88799000       4.43564000       1.08276000      -0.00011200      -0.00046600       0.00034200
O        4.29047000       4.43564000       2.42932000      -0.00011200      -0.00046600      -0.00034200
O        4.29047000       2.97677000       4.59484000      -0.00011200       0.00046600       0.00034200
O        2.91695000       1.96483000       1.08276000       0.00011200      -0.00046600       0.00034200
O        2.91695000       0.50597000       5.94140000       0.00011200       0.00046600      -0.00034200
O        0.24115000       1.23540000       0.00000000      -0.00059500       0.00000000       0.00000000
O        2.16132000       3.70620000       3.51208000       0.00059500      -0.00000000       0.00000000
O        4.56379000       3.70620000       0.00000000       0.00059500      -0.00000000       0.00000000
O        2.64362000       1.23540000       3.51208000      -0.00059500      -0.00000000       0.00000000
20
virial="-1.01207 0.0 0.0 0.0 -0.99461 0.0 0.0 0.0 -0.94574" Lattice="4.809749504011964 0.0 0.0 0.0 4.946546156382294 0.0 0.0 0.0 7.031186869800714" Properties=species:S:1:pos:R:3:forces:R:3 energy=-147.95758853 pbc="T T T"
Al       1.21350000       0.15530000       2.74208000       0.00212200      -0.00535200       0.00357200
Al       1.21350000       2.31797000       4.28910000       0.00212200       0.00535200      -0.00357200
Al       1.19137000       2.62858000       0.77351000      -0.00212200      -0.00535200      -0.00357200
Al       1.19137000       4.79124000       6.25768000      -0.00212200       0.00535200       0.00357200
Al       3.59625000       4.79124000       4.28910000      -0.00212200       0.00535200      -0.00357200
Al       3.59625000       2.62858000       2.74208000      -0.00212200      -0.00535200       0.00357200
Al       3.61838000       2.31797000       6.25768000       0.00212200       0.00535200       0.00357200
Al       3.61838000       0.15530000       0.77351000       0.00212200      -0.00535200      -0.00357200
O        0.51499000       0.50648000       4.59943000      -0.00197900      -0.00107600      -0.00227700
O        0.51499000       1.96680000       2.43175000      -0.00197900       0.00107600       0.00227700
O        1.88988000       2.97975000       5.94735000       0.00197900      -0.00107600       0.00227700
O        1.88988000       4.44007000       1.08384000       0.00197900       0.00107600      -0.00227700
O        4.29476000       4.44007000       2.43175000       0.00197900       0.00107600       0.00227700
O        4.29476000       2.97975000       4.59943000       0.00197900      -0.00107600      -0.00227700
O        2.91987000       1.96680000       1.08384000      -0.00197900       0.00107600      -0.00227700
O        2.91987000       0.50648000       5.94735000      -0.00197900      -0.00107600       0.00227700
O        0.24139000       1.23664000       0.00000000      -0.00492100      -0.00000000      -0.00000000
O        2.16348000       3.70991000       3.51559000       0.00492100      -0.00000000      -0.00000000
O        4.56836000       3.70991000       0.00000000       0.00492100      -0.00000000      -0.00000000
O        2.64627000       1.23664000       3.51559000      -0.00492100      -0.00000000      -0.00000000
20
virial="-1.79287 0.0 0.0 0.0 -1.73827 0.0 0.0 0.0 -1.68695" Lattice="4.814554448571416 0.0 0.0 0.0 4.951487760934125 0.0 0.0 0.0 7.0382110325078076" Properties=species:S:1:pos:R:3:forces:R:3 energy=-147.98113136 pbc="T T T"
Al       1.21471000       0.15546000       2.74482000       0.00436700      -0.01233200       0.00812200
Al       1.21471000       2.32029000       4.29339000       0.00436700       0.01233200      -0.00812200
Al       1.19256000       2.63120000       0.77428000      -0.00436700      -0.01233200      -0.00812200
Al       1.19256000       4.79603000       6.26393000      -0.00436700       0.01233200       0.00812200
Al       3.59984000       4.79603000       4.29339000      -0.00436700       0.01233200      -0.00812200
Al       3.59984000       2.63120000       2.74482000      -0.00436700      -0.01233200       0.00812200
Al       3.62199000       2.32029000       6.26393000       0.00436700       0.01233200       0.00812200
Al       3.62199000       0.15546000       0.77428000       0.00436700      -0.01233200      -0.00812200
O        0.51551000       0.50698000       4.60403000      -0.00398600      -0.00342800      -0.00499100
O        0.51551000       1.96876000       2.43418000      -0.00398600       0.00342800       0.00499100
O        1.89177000       2.98273000       5.95329000       0.00398600      -0.00342800       0.00499100
O        1.89177000       4.44451000       1.08492000       0.00398600       0.00342800      -0.00499100
O        4.29905000       4.44451000       2.43418000       0.00398600       0.00342800       0.00499100
O        4.29905000       2.98273000       4.60403000       0.00398600      -0.00342800      -0.00499100
O        2.92278000       1.96876000       1.08492000      -0.00398600       0.00342800      -0.00499100
O        2.92278000       0.50698000       5.95329000      -0.00398600      -0.00342800       0.00499100
O        0.24163000       1.23787000       0.00000000      -0.00796000       0.00000000       0.00000000
O        2.16564000       3.71362000       3.51911000       0.00796000       0.00000000       0.00000000
O        4.57292000       3.71362000       0.00000000       0.00796000       0.00000000       0.00000000
O        2.64891000       1.23787000       3.51911000      -0.00796000       0.00000000       0.00000000
20
virial="-2.62798 0.0 0.0 0.0 -2.52959 0.0 0.0 0.0 -2.41549" Lattice="4.819359393130869 0.0 0.0 0.0 4.956429365485955 0.0 0.0 0.0 7.045235195214901" Properties=species:S:1:pos:R:3:forces:R:3 energy=-147.99825472 pbc="T T T"
Al       1.21593000       0.15561000       2.74756000       0.00356000      -0.01911400       0.01262200
Al       1.21593000       2.32260000       4.29767000       0.00356000       0.01911400      -0.01262200
Al       1.19375000       2.63383000       0.77506000      -0.00356000      -0.01911400      -0.01262200
Al       1.19375000       4.80082000       6.27018000      -0.00356000       0.01911400       0.01262200
Al       3.60343000       4.80082000       4.29767000      -0.00356000       0.01911400      -0.01262200
Al       3.60343000       2.63383000       2.74756000      -0.00356000      -0.01911400       0.01262200
Al       3.62561000       2.32260000       6.27018000       0.00356000       0.01911400       0.01262200
Al       3.62561000       0.15561000       0.77506000       0.00356000      -0.01911400      -0.01262200
O        0.51602000       0.50749000       4.60862000      -0.00591000      -0.00578700      -0.00730200
O        0.51602000       1.97073000       2.43661000      -0.00591000       0.00578700       0.00730200
O        1.89366000       2.98570000       5.95923000       0.00591000      -0.00578700       0.00730200
O        1.89366000       4.44894000       1.08601000       0.00591000       0.00578700      -0.00730200
O        4.30334000       4.44894000       2.43661000       0.00591000       0.00578700       0.00730200
O        4.30334000       2.98570000       4.60862000       0.00591000      -0.00578700      -0.00730200
O        2.92570000       1.97073000       1.08601000      -0.00591000       0.00578700      -0.00730200
O        2.92570000       0.50749000       5.95923000      -0.00591000      -0.00578700       0.00730200
O        0.24188000       1.23911000       0.00000000      -0.00973400       0.00000000       0.00000000
O        2.16780000       3.71732000       3.52262000       0.00973400       0.00000000       0.00000000
O        4.57748000       3.71732000       0.00000000       0.00973400       0.00000000       0.00000000
O        2.65156000       1.23911000       3.52262000      -0.00973400       0.00000000       0.00000000
