 vasp.6.3.0 20Jan22 (build Jul  1 2024 12:21:46) complex                         
 executed on             LinuxGNU date 2024.10.21  13:13:07
 running    1 mpi-ranks, with    1 threads/rank
 distrk:  each k-point on    1 cores,    1 groups
 distr:  one band on NCORE=   1 cores,    1 groups


--------------------------------------------------------------------------------------------------------


 INCAR:
   SYSTEM = Alumina_orthorombic_cell_under_strain
   ISTART = 0
   ICHARG = 2
   ENCUT = 400
   ALGO = Normal
   PREC = Normal
   ISPIN = 1
   LWAVE = T             (Write WAVECAR)
   LCHARG = T             (Write CHGCAR)
   NPAR = 1
   EDIFF = 1E-6
   NSW = 0
   NELM = 100
   POTIM = 0.5
   IBRION = -1
   ISMEAR = 1
   SIGMA = 0.026
   EDIFFG = -0.001
   ISIF = 2
   LREAL = Auto

 POTCAR:    PAW_PBE Al 04Jan2001                  
 POTCAR:    PAW_PBE O 08Apr2002                   
 POTCAR:    PAW_PBE Al 04Jan2001                  
   SHA256 =  17880443556af62b473fe41b62a467bd001ad55d2cabe504a3f22e34d4e9db96 Al/POTCAR             
   COPYR  = (c) Copyright 04Jan2001 Georg Kresse                                                    
   COPYR  = This file is part of the software VASP. Any use, copying, and all other rights are regul
   COPYR  = If you do not have a valid VASP license, you may not use, copy or distribute this file. 
   VRHFIN =Al: s2p1                                                                                 
   LEXCH  = PE                                                                                      
   EATOM  =    53.5387 eV,    3.9350 Ry                                                             
                                                                                                    
   TITEL  = PAW_PBE Al 04Jan2001                                                                    
   LULTRA =        F    use ultrasoft PP ?                                                          
   IUNSCR =        1    unscreen: 0-lin 1-nonlin 2-no                                               
   RPACOR =    1.500    partial core radius                                                         
   POMASS =   26.981; ZVAL   =    3.000    mass and valenz                                          
   RCORE  =    1.900    outmost cutoff radius                                                       
   RWIGS  =    2.650; RWIGS  =    1.402    wigner-seitz radius (au A)                               
   ENMAX  =  240.300; ENMIN  =  180.225 eV                                                          
   ICORE  =        2    local potential                                                             
   LCOR   =        T    correct aug charges                                                         
   LPAW   =        T    paw PP                                                                      
   EAUG   =  291.052                                                                                
   DEXC   =    0.000                                                                                
   RMAX   =    1.939    core radius for proj-oper                                                   
   RAUG   =    1.300    factor for augmentation sphere                                              
   RDEP   =    1.966    radius for radial grids                                                     
   RDEPT  =    1.856    core radius for aug-charge                                                  
                                                                                                    
   Atomic configuration                                                                             
    6 entries                                                                                       
     n  l   j            E        occ.                                                              
     1  0  0.50     -1511.1048   2.0000                                                             
     2  0  0.50      -108.1629   2.0000                                                             
     2  1  1.50       -69.6402   6.0000                                                             
     3  0  0.50        -7.7528   2.0000                                                             
     3  1  1.50        -2.7121   1.0000                                                             
     3  2  2.50        -2.7212   0.0000                                                             
   Description                                                                                      
     l       E           TYP  RCUT    TYP  RCUT                                                     
     0     -7.7528455     23  1.900                                                                 
     0     -3.3096929     23  1.900                                                                 
     1     -2.7120682     23  1.900                                                                 
     1     13.6058260     23  1.900                                                                 
     2     -2.7211652      7  1.900                                                                 
  local pseudopotential read in
  partial core-charges read in
  partial kinetic energy density read in
  atomic valenz-charges read in
  non local Contribution for L=           0  read in
    real space projection operators read in
  non local Contribution for L=           0  read in
    real space projection operators read in
  non local Contribution for L=           1  read in
    real space projection operators read in
  non local Contribution for L=           1  read in
    real space projection operators read in
    PAW grid and wavefunctions read in

   number of l-projection  operators is LMAX  =           4
   number of lm-projection operators is LMMAX =           8

 POTCAR:    PAW_PBE O 08Apr2002                   
   SHA256 =  818f92134a0a090dccd8ba1447fa70422a3b330e708bb4f08108d8ae51209ddf O/POTCAR              
   COPYR  = (c) Copyright 08Apr2002 Georg Kresse                                                    
   COPYR  = This file is part of the software VASP. Any use, copying, and all other rights are regul
   COPYR  = If you do not have a valid VASP license, you may not use, copy or distribute this file. 
   VRHFIN =O: s2p4                                                                                  
   LEXCH  = PE                                                                                      
   EATOM  =   432.3788 eV,   31.7789 Ry                                                             
                                                                                                    
   TITEL  = PAW_PBE O 08Apr2002                                                                     
   LULTRA =        F    use ultrasoft PP ?                                                          
   IUNSCR =        1    unscreen: 0-lin 1-nonlin 2-no                                               
   RPACOR =    1.200    partial core radius                                                         
   POMASS =   16.000; ZVAL   =    6.000    mass and valenz                                          
   RCORE  =    1.520    outmost cutoff radius                                                       
   RWIGS  =    1.550; RWIGS  =    0.820    wigner-seitz radius (au A)                               
   ENMAX  =  400.000; ENMIN  =  300.000 eV                                                          
   ICORE  =        2    local potential                                                             
   LCOR   =        T    correct aug charges                                                         
   LPAW   =        T    paw PP                                                                      
   EAUG   =  605.392                                                                                
   DEXC   =    0.000                                                                                
   RMAX   =    1.553    core radius for proj-oper                                                   
   RAUG   =    1.300    factor for augmentation sphere                                              
   RDEP   =    1.550    radius for radial grids                                                     
   RDEPT  =    1.329    core radius for aug-charge                                                  
                                                                                                    
   Atomic configuration                                                                             
    4 entries                                                                                       
     n  l   j            E        occ.                                                              
     1  0  0.50      -514.6923   2.0000                                                             
     2  0  0.50       -23.9615   2.0000                                                             
     2  1  0.50        -9.0305   4.0000                                                             
     3  2  1.50        -9.5241   0.0000                                                             
   Description                                                                                      
     l       E           TYP  RCUT    TYP  RCUT                                                     
     0    -23.9615318     23  1.200                                                                 
     0     -9.5240782     23  1.200                                                                 
     1     -9.0304911     23  1.520                                                                 
     1      8.1634956     23  1.520                                                                 
     2     -9.5240782      7  1.500                                                                 
  local pseudopotential read in
  partial core-charges read in
  partial kinetic energy density read in
  kinetic energy density of atom read in
  atomic valenz-charges read in
  non local Contribution for L=           0  read in
    real space projection operators read in
  non local Contribution for L=           0  read in
    real space projection operators read in
  non local Contribution for L=           1  read in
    real space projection operators read in
  non local Contribution for L=           1  read in
    real space projection operators read in
    PAW grid and wavefunctions read in

   number of l-projection  operators is LMAX  =           4
   number of lm-projection operators is LMMAX =           8

 Optimization of the real space projectors (new method)

 maximal supplied QI-value         = 19.84
 optimisation between [QCUT,QGAM] = [ 10.12, 20.44] = [ 28.68,116.96] Ry 
 Optimized for a Real-space Cutoff    1.23 Angstroem

   l    n(q)    QCUT    max X(q) W(low)/X(q) W(high)/X(q)  e(spline) 
   0      7    10.119   176.870    0.49E-04    0.18E-03    0.39E-07
   0      7    10.119   105.762    0.46E-04    0.18E-03    0.38E-07
   1      7    10.119    55.370    0.30E-03    0.37E-03    0.12E-06
   1      7    10.119    20.208    0.27E-03    0.35E-03    0.11E-06
 Optimization of the real space projectors (new method)

 maximal supplied QI-value         = 24.76
 optimisation between [QCUT,QGAM] = [ 10.15, 20.30] = [ 28.85,115.39] Ry 
 Optimized for a Real-space Cutoff    1.38 Angstroem

   l    n(q)    QCUT    max X(q) W(low)/X(q) W(high)/X(q)  e(spline) 
   0      8    10.150    20.381    0.22E-03    0.32E-03    0.29E-06
   0      8    10.150    15.268    0.23E-03    0.35E-03    0.30E-06
   1      8    10.150     5.964    0.46E-03    0.53E-03    0.21E-06
   1      8    10.150     5.382    0.38E-03    0.45E-03    0.19E-06
  PAW_PBE Al 04Jan2001                  :
 energy of atom  1       EATOM=  -53.5387
 kinetic energy error for atom=    0.0005 (will be added to EATOM!!)
  PAW_PBE O 08Apr2002                   :
 energy of atom  2       EATOM= -432.3788
 kinetic energy error for atom=    0.1156 (will be added to EATOM!!)


 POSCAR:    Al  O
  positions in direct lattice
  No initial velocities read in
 exchange correlation table for  LEXCH =        8
   RHO(1)=    0.500       N(1)  =     2000
   RHO(2)=  100.500       N(2)  =     4000



--------------------------------------------------------------------------------------------------------


 ion  position               nearest neighbor table
   1  0.126  0.016  0.390-  70 1.93  52 1.95  46 1.98  77 2.03  37 2.04  33 2.09   5 2.76  18 2.97
                            20 3.01  31 3.23  29 3.23  10 3.28   9 3.28   6 3.31
   2  0.126  0.516  0.390-  69 1.93  51 1.95  45 1.98  78 2.03  38 2.04  34 2.09   6 2.76  17 2.97
                            19 3.01  32 3.23  30 3.23   9 3.28  10 3.28   5 3.31
   3  0.626  0.016  0.390-  72 1.93  50 1.95  48 1.98  79 2.03  39 2.04  35 2.09   7 2.76  20 2.97
                            18 3.01  29 3.23  31 3.23  12 3.28  11 3.28   8 3.31
   4  0.626  0.516  0.390-  71 1.93  49 1.95  47 1.98  80 2.03  40 2.04  36 2.09   8 2.76  19 2.97
                            17 3.01  30 3.23  32 3.23  11 3.28  12 3.28   7 3.31
   5  0.126  0.234  0.610-  69 1.93  55 1.95  41 1.98  77 2.03  33 2.04  37 2.09   1 2.76  21 2.97
                            23 3.01  27 3.23  25 3.23  13 3.28  14 3.28   2 3.31
   6  0.126  0.734  0.610-  70 1.93  56 1.95  42 1.98  78 2.03  34 2.04  38 2.09   2 2.76  22 2.97
                            24 3.01  28 3.23  26 3.23  14 3.28  13 3.28   1 3.31
   7  0.626  0.234  0.610-  71 1.93  53 1.95  43 1.98  79 2.03  35 2.04  39 2.09   3 2.76  23 2.97
                            21 3.01  25 3.23  27 3.23  15 3.28  16 3.28   4 3.31
   8  0.626  0.734  0.610-  72 1.93  54 1.95  44 1.98  80 2.03  36 2.04  40 2.09   4 2.76  24 2.97
                            22 3.01  26 3.23  28 3.23  16 3.28  15 3.28   3 3.31
   9  0.124  0.266  0.110-  65 1.93  57 1.95  37 1.98  75 2.03  45 2.04  41 2.09  13 2.76  27 2.97
                            25 3.01  21 3.23  23 3.23   2 3.28   1 3.28  14 3.31
  10  0.124  0.766  0.110-  66 1.93  58 1.95  38 1.98  76 2.03  46 2.04  42 2.09  14 2.76  28 2.97
                            26 3.01  22 3.23  24 3.23   1 3.28   2 3.28  13 3.31
  11  0.624  0.266  0.110-  67 1.93  59 1.95  39 1.98  73 2.03  47 2.04  43 2.09  15 2.76  25 2.97
                            27 3.01  23 3.23  21 3.23   4 3.28   3 3.28  16 3.31
  12  0.624  0.766  0.110-  68 1.93  60 1.95  40 1.98  74 2.03  48 2.04  44 2.09  16 2.76  26 2.97
                            28 3.01  24 3.23  22 3.23   3 3.28   4 3.28  15 3.31
  13  0.124  0.484  0.890-  66 1.93  62 1.95  34 1.98  75 2.03  41 2.04  45 2.09   9 2.76  32 2.97
                            30 3.01  17 3.23  19 3.23   5 3.28   6 3.28  10 3.31
  14  0.124  0.984  0.890-  65 1.93  61 1.95  33 1.98  76 2.03  42 2.04  46 2.09  10 2.76  31 2.97
                            29 3.01  18 3.23  20 3.23   6 3.28   5 3.28   9 3.31
  15  0.624  0.484  0.890-  68 1.93  64 1.95  36 1.98  73 2.03  43 2.04  47 2.09  11 2.76  30 2.97
                            32 3.01  19 3.23  17 3.23   7 3.28   8 3.28  12 3.31
  16  0.624  0.984  0.890-  67 1.93  63 1.95  35 1.98  74 2.03  44 2.04  48 2.09  12 2.76  29 2.97
                            31 3.01  20 3.23  18 3.23   8 3.28   7 3.28  11 3.31
  17  0.374  0.484  0.610-  78 1.93  36 1.95  62 1.98  69 2.03  53 2.04  49 2.09  21 2.76   2 2.97
                             4 3.01  13 3.23  15 3.23  25 3.28  26 3.28  22 3.31
  18  0.374  0.984  0.610-  77 1.93  35 1.95  61 1.98  70 2.03  54 2.04  50 2.09  22 2.76   1 2.97
                             3 3.01  14 3.23  16 3.23  26 3.28  25 3.28  21 3.31
  19  0.874  0.484  0.610-  80 1.93  34 1.95  64 1.98  71 2.03  55 2.04  51 2.09  23 2.76   4 2.97
                             2 3.01  15 3.23  13 3.23  27 3.28  28 3.28  24 3.31
  20  0.874  0.984  0.610-  79 1.93  33 1.95  63 1.98  72 2.03  56 2.04  52 2.09  24 2.76   3 2.97
                             1 3.01  16 3.23  14 3.23  28 3.28  27 3.28  23 3.31
  21  0.374  0.266  0.390-  77 1.93  39 1.95  57 1.98  69 2.03  49 2.04  53 2.09  17 2.76   5 2.97
                             7 3.01   9 3.23  11 3.23  30 3.28  29 3.28  18 3.31
  22  0.374  0.766  0.390-  78 1.93  40 1.95  58 1.98  70 2.03  50 2.04  54 2.09  18 2.76   6 2.97
                             8 3.01  10 3.23  12 3.23  29 3.28  30 3.28  17 3.31
  23  0.874  0.266  0.390-  79 1.93  37 1.95  59 1.98  71 2.03  51 2.04  55 2.09  19 2.76   7 2.97
                             5 3.01  11 3.23   9 3.23  32 3.28  31 3.28  20 3.31
  24  0.874  0.766  0.390-  80 1.93  38 1.95  60 1.98  72 2.03  52 2.04  56 2.09  20 2.76   8 2.97
                             6 3.01  12 3.23  10 3.23  31 3.28  32 3.28  19 3.31
  25  0.376  0.234  0.890-  73 1.93  41 1.95  53 1.98  67 2.03  61 2.04  57 2.09  29 2.76  11 2.97
                             9 3.01   7 3.23   5 3.23  17 3.28  18 3.28  30 3.31
  26  0.376  0.734  0.890-  74 1.93  42 1.95  54 1.98  68 2.03  62 2.04  58 2.09  30 2.76  12 2.97
                            10 3.01   8 3.23   6 3.23  18 3.28  17 3.28  29 3.31
  27  0.876  0.234  0.890-  75 1.93  43 1.95  55 1.98  65 2.03  63 2.04  59 2.09  31 2.76   9 2.97
                            11 3.01   5 3.23   7 3.23  19 3.28  20 3.28  32 3.31
  28  0.876  0.734  0.890-  76 1.93  44 1.95  56 1.98  66 2.03  64 2.04  60 2.09  32 2.76  10 2.97
                            12 3.01   6 3.23   8 3.23  20 3.28  19 3.28  31 3.31
  29  0.376  0.016  0.110-  74 1.93  46 1.95  50 1.98  67 2.03  57 2.04  61 2.09  25 2.76  16 2.97
                            14 3.01   3 3.23   1 3.23  22 3.28  21 3.28  26 3.31
  30  0.376  0.516  0.110-  73 1.93  45 1.95  49 1.98  68 2.03  58 2.04  62 2.09  26 2.76  15 2.97
                            13 3.01   4 3.23   2 3.23  22 3.28  21 3.28  25 3.31
  31  0.876  0.016  0.110-  76 1.93  48 1.95  52 1.98  65 2.03  59 2.04  63 2.09  27 2.76  14 2.97
                            16 3.01   1 3.23   3 3.23  24 3.28  23 3.28  28 3.31
  32  0.876  0.516  0.110-  75 1.93  47 1.95  51 1.98  66 2.03  60 2.04  64 2.09  28 2.76  13 2.97
                            15 3.01   2 3.23   4 3.23  24 3.28  23 3.28  27 3.31
  33  0.054  0.051  0.654-  20 1.95  14 1.98   5 2.04   1 2.09
  34  0.054  0.551  0.654-  19 1.95  13 1.98   6 2.04   2 2.09
  35  0.554  0.051  0.654-  18 1.95  16 1.98   7 2.04   3 2.09
  36  0.554  0.551  0.654-  17 1.95  15 1.98   8 2.04   4 2.09
  37  0.054  0.199  0.346-  23 1.95   9 1.98   1 2.04   5 2.09
  38  0.054  0.699  0.346-  24 1.95  10 1.98   2 2.04   6 2.09
  39  0.554  0.199  0.346-  21 1.95  11 1.98   3 2.04   7 2.09
  40  0.554  0.699  0.346-  22 1.95  12 1.98   4 2.04   8 2.09
  41  0.196  0.301  0.846-  25 1.95   5 1.98  13 2.04   9 2.09
  42  0.196  0.801  0.846-  26 1.95   6 1.98  14 2.04  10 2.09
  43  0.696  0.301  0.846-  27 1.95   7 1.98  15 2.04  11 2.09
  44  0.696  0.801  0.846-  28 1.95   8 1.98  16 2.04  12 2.09
  45  0.196  0.449  0.154-  30 1.95   2 1.98   9 2.04  13 2.09
  46  0.196  0.949  0.154-  29 1.95   1 1.98  10 2.04  14 2.09
  47  0.696  0.449  0.154-  32 1.95   4 1.98  11 2.04  15 2.09
  48  0.696  0.949  0.154-  31 1.95   3 1.98  12 2.04  16 2.09
  49  0.446  0.449  0.346-   4 1.95  30 1.98  21 2.04  17 2.09
  50  0.446  0.949  0.346-   3 1.95  29 1.98  22 2.04  18 2.09
  51  0.946  0.449  0.346-   2 1.95  32 1.98  23 2.04  19 2.09
  52  0.946  0.949  0.346-   1 1.95  31 1.98  24 2.04  20 2.09
  53  0.446  0.301  0.654-   7 1.95  25 1.98  17 2.04  21 2.09
  54  0.446  0.801  0.654-   8 1.95  26 1.98  18 2.04  22 2.09
  55  0.946  0.301  0.654-   5 1.95  27 1.98  19 2.04  23 2.09
  56  0.946  0.801  0.654-   6 1.95  28 1.98  20 2.04  24 2.09
  57  0.304  0.199  0.154-   9 1.95  21 1.98  29 2.04  25 2.09
  58  0.304  0.699  0.154-  10 1.95  22 1.98  30 2.04  26 2.09
  59  0.804  0.199  0.154-  11 1.95  23 1.98  31 2.04  27 2.09
  60  0.804  0.699  0.154-  12 1.95  24 1.98  32 2.04  28 2.09
  61  0.304  0.051  0.846-  14 1.95  18 1.98  25 2.04  29 2.09
  62  0.304  0.551  0.846-  13 1.95  17 1.98  26 2.04  30 2.09
  63  0.804  0.051  0.846-  16 1.95  20 1.98  27 2.04  31 2.09
  64  0.804  0.551  0.846-  15 1.95  19 1.98  28 2.04  32 2.09
  65  0.025  0.125  0.000-  14 1.93   9 1.93  27 2.03  31 2.03
  66  0.025  0.625  0.000-  13 1.93  10 1.93  28 2.03  32 2.03
  67  0.525  0.125  0.000-  16 1.93  11 1.93  25 2.03  29 2.03
  68  0.525  0.625  0.000-  15 1.93  12 1.93  26 2.03  30 2.03
  69  0.225  0.375  0.500-   5 1.93   2 1.93  17 2.03  21 2.03
  70  0.225  0.875  0.500-   6 1.93   1 1.93  18 2.03  22 2.03
  71  0.725  0.375  0.500-   7 1.93   4 1.93  19 2.03  23 2.03
  72  0.725  0.875  0.500-   8 1.93   3 1.93  20 2.03  24 2.03
  73  0.475  0.375  0.000-  25 1.93  30 1.93  15 2.03  11 2.03
  74  0.475  0.875  0.000-  29 1.93  26 1.93  16 2.03  12 2.03
  75  0.975  0.375  0.000-  27 1.93  32 1.93  13 2.03   9 2.03
  76  0.975  0.875  0.000-  31 1.93  28 1.93  14 2.03  10 2.03
  77  0.275  0.125  0.500-  18 1.93  21 1.93   5 2.03   1 2.03
  78  0.275  0.625  0.500-  17 1.93  22 1.93   6 2.03   2 2.03
  79  0.775  0.125  0.500-  20 1.93  23 1.93   7 2.03   3 2.03
  80  0.775  0.625  0.500-  19 1.93  24 1.93   8 2.03   4 2.03

  LATTYP: Found a simple orthorhombic cell.
 ALAT       =     7.3038985467
 B/A-ratio  =     1.3681458986
 C/A-ratio  =     1.4070268484
  
  Lattice vectors:
  
 A1 = (   0.0000000000,   0.0000000000,   7.3038985467)
 A2 = (   9.9927988403,   0.0000000000,   0.0000000000)
 A3 = (   0.0000000000,  10.2767813534,   0.0000000000)


Analysis of symmetry for initial positions (statically):
=====================================================================
 Subroutine PRICEL returns following result:
 
  LATTYP: Found a simple orthorhombic cell.
 ALAT       =     4.9963994204
 B/A-ratio  =     1.0284187391
 C/A-ratio  =     1.4618323981
  
  Lattice vectors:
  
 A1 = (   4.9963994204,   0.0000000000,   0.0000000000)
 A2 = (   0.0000000000,   5.1383907919,   0.0000000000)
 A3 = (   0.0000000000,   0.0000000000,   7.3038985467)
 
   4 primitive cells build up your supercell.
 

 Routine SETGRP: Setting up the symmetry group for a 
 simple orthorhombic supercell.


 Subroutine GETGRP returns: Found  8 space group operations
 (whereof  2 operations were pure point group operations)
 out of a pool of  8 trial point group operations.


The static configuration has the point symmetry S_2 .
 The point group associated with its full space group is D_2h.


Analysis of symmetry for dynamics (positions and initial velocities):
=====================================================================
 Subroutine PRICEL returns following result:
 
  LATTYP: Found a simple orthorhombic cell.
 ALAT       =     4.9963994204
 B/A-ratio  =     1.0284187391
 C/A-ratio  =     1.4618323981
  
  Lattice vectors:
  
 A1 = (   4.9963994204,   0.0000000000,   0.0000000000)
 A2 = (   0.0000000000,   5.1383907919,   0.0000000000)
 A3 = (   0.0000000000,   0.0000000000,   7.3038985467)
 
   4 primitive cells build up your supercell.
 

 Routine SETGRP: Setting up the symmetry group for a 
 simple orthorhombic supercell.


 Subroutine GETGRP returns: Found  8 space group operations
 (whereof  2 operations were pure point group operations)
 out of a pool of  8 trial point group operations.


The dynamic configuration has the point symmetry S_2 .
 The point group associated with its full space group is D_2h.


Analysis of constrained symmetry for selective dynamics:
=====================================================================
 Subroutine PRICEL returns following result:
 
  LATTYP: Found a simple orthorhombic cell.
 ALAT       =     4.9963994204
 B/A-ratio  =     1.0284187391
 C/A-ratio  =     1.4618323981
  
  Lattice vectors:
  
 A1 = (   4.9963994204,   0.0000000000,   0.0000000000)
 A2 = (   0.0000000000,   5.1383907919,   0.0000000000)
 A3 = (   0.0000000000,   0.0000000000,   7.3038985467)
 
   4 primitive cells build up your supercell.
 

 Routine SETGRP: Setting up the symmetry group for a 
 simple orthorhombic supercell.


 Subroutine GETGRP returns: Found  8 space group operations
 (whereof  2 operations were pure point group operations)
 out of a pool of  8 trial point group operations.


The constrained configuration has the point symmetry S_2 .
 The point group associated with its full space group is D_2h.


 Subroutine INISYM returns: Found  8 space group operations
 (whereof  2 operations are pure point group operations),
 and found     4 'primitive' translations


----------------------------------------------------------------------------------------

                                     Primitive cell                                     

  volume of cell :     187.5163

  direct lattice vectors                    reciprocal lattice vectors
     4.996399420  0.000000000  0.000000000     0.200144127  0.000000000  0.000000000
     0.000000000  5.138390792  0.000000000     0.000000000  0.194613458  0.000000000
     0.000000000  0.000000000  7.303898547     0.000000000  0.000000000  0.136913183

  length of vectors
     4.996399420  5.138390792  7.303898547     0.200144127  0.194613458  0.136913183

  position of ions in fractional coordinates (direct lattice)
     0.252301010  0.031394432  0.389988368
     0.252301010  0.468605564  0.610011602
     0.247698990  0.531394421  0.110011610
     0.247698990  0.968605501  0.889988398
     0.747698961  0.968605501  0.610011602
     0.747698961  0.531394421  0.389988368
     0.752301039  0.468605564  0.889988398
     0.752301039  0.031394432  0.110011610
     0.107072531  0.102390997  0.654148561
     0.107072531  0.397608992  0.345851469
     0.392927454  0.602391023  0.845851439
     0.392927454  0.897608899  0.154148517
     0.892927514  0.897608899  0.345851469
     0.892927514  0.602391023  0.654148561
     0.607072486  0.397608992  0.154148517
     0.607072486  0.102390997  0.845851439
     0.050188047  0.249999994  0.000000000
     0.449811960  0.749999961  0.500000000
     0.949811900  0.749999961  0.000000000
     0.550188099  0.249999994  0.500000000

  ion indices of the primitive-cell ions
   primitive index   ion index
                 1           1
                 2           5
                 3          10
                 4          14
                 5          18
                 6          22
                 7          27
                 8          31
                 9          33
                10          37
                11          42
                12          46
                13          52
                14          56
                15          57
                16          61
                17          65
                18          70
                19          76
                20          77

----------------------------------------------------------------------------------------



 KPOINTS: k-points                                

Automatic generation of k-mesh.
 Grid dimensions read from file:
 generate k-points for:    4    4    4

 Generating k-lattice:

  Cartesian coordinates                     Fractional coordinates (reciprocal lattice)
     0.025018016  0.000000000  0.000000000     0.250000000  0.000000000  0.000000000
     0.000000000  0.024326683  0.000000000     0.000000000  0.250000000  0.000000000
     0.000000000  0.000000000  0.034228296     0.000000000  0.000000000  0.250000000

  Length of vectors
     0.025018016  0.024326683  0.034228296

  Shift w.r.t. Gamma in fractional coordinates (k-lattice)
     0.500000000  0.500000000  0.500000000

 
 Subroutine IBZKPT returns following result:
 ===========================================
 
 Found      8 irreducible k-points:
 
 Following reciprocal coordinates:
            Coordinates               Weight
  0.125000  0.125000  0.125000      8.000000
  0.375000  0.125000  0.125000      8.000000
  0.125000  0.375000  0.125000      8.000000
  0.375000  0.375000  0.125000      8.000000
  0.125000  0.125000  0.375000      8.000000
  0.375000  0.125000  0.375000      8.000000
  0.125000  0.375000  0.375000      8.000000
  0.375000  0.375000  0.375000      8.000000
 
 Following cartesian coordinates:
            Coordinates               Weight
  0.012509  0.012163  0.017114      8.000000
  0.037527  0.012163  0.017114      8.000000
  0.012509  0.036490  0.017114      8.000000
  0.037527  0.036490  0.017114      8.000000
  0.012509  0.012163  0.051342      8.000000
  0.037527  0.012163  0.051342      8.000000
  0.012509  0.036490  0.051342      8.000000
  0.037527  0.036490  0.051342      8.000000
 


--------------------------------------------------------------------------------------------------------




 Dimension of arrays:
   k-points           NKPTS =      8   k-points in BZ     NKDIM =      8   number of bands    NBANDS=    233
   number of dos      NEDOS =    301   number of ions     NIONS =     80
   non local maximal  LDIM  =      4   non local SUM 2l+1 LMDIM =      8
   total plane-waves  NPLWV =  90000
   max r-space proj   IRMAX =   1372   max aug-charges    IRDMAX=   4869
   dimension x,y,z NGX =    50 NGY =   50 NGZ =   36
   dimension x,y,z NGXF=   100 NGYF=  100 NGZF=   72
   support grid    NGXF=   100 NGYF=  100 NGZF=   72
   ions per type =              32  48
   NGX,Y,Z   is equivalent  to a cutoff of   8.32,  8.09,  8.19 a.u.
   NGXF,Y,Z  is equivalent  to a cutoff of  16.64, 16.18, 16.39 a.u.

 SYSTEM =  Alumina_orthorombic_cell_under_strain   
 POSCAR =     Al  O                                

 Startparameter for this run:
   NWRITE =      2    write-flag & timer
   PREC   = normal    normal or accurate (medium, high low for compatibility)
   ISTART =      0    job   : 0-new  1-cont  2-samecut
   ICHARG =      2    charge: 1-file 2-atom 10-const
   ISPIN  =      1    spin polarized calculation?
   LNONCOLLINEAR =      F non collinear calculations
   LSORBIT =      F    spin-orbit coupling
   INIWAV =      1    electr: 0-lowe 1-rand  2-diag
   LASPH  =      F    aspherical Exc in radial PAW
 Electronic Relaxation 1
   ENCUT  =  400.0 eV  29.40 Ry    5.42 a.u.  16.30 16.76 11.91*2*pi/ulx,y,z
   ENINI  =  400.0     initial cutoff
   ENAUG  =  605.4 eV  augmentation charge cutoff
   NELM   =    100;   NELMIN=  2; NELMDL= -5     # of ELM steps 
   EDIFF  = 0.1E-05   stopping-criterion for ELM
   LREAL  =      T    real-space projection
   NLSPLINE    = F    spline interpolate recip. space projectors
   LCOMPAT=      F    compatible to vasp.4.4
   GGA_COMPAT  = T    GGA compatible to vasp.4.4-vasp.4.6
   LMAXPAW     = -100 max onsite density
   LMAXMIX     =    2 max onsite mixed and CHGCAR
   VOSKOWN=      0    Vosko Wilk Nusair interpolation
   ROPT   =   -0.00050  -0.00050
 Ionic relaxation
   EDIFFG = -.1E-02   stopping-criterion for IOM
   NSW    =      0    number of steps for IOM
   NBLOCK =      1;   KBLOCK =      1    inner block; outer block 
   IBRION =     -1    ionic relax: 0-MD 1-quasi-New 2-CG
   NFREE  =      0    steps in history (QN), initial steepest desc. (CG)
   ISIF   =      2    stress and relaxation
   IWAVPR =     10    prediction:  0-non 1-charg 2-wave 3-comb
   ISYM   =      2    0-nonsym 1-usesym 2-fastsym
   LCORR  =      T    Harris-Foulkes like correction to forces

   POTIM  = 0.5000    time-step for ionic-motion
   TEIN   =    0.0    initial temperature
   TEBEG  =    0.0;   TEEND  =   0.0 temperature during run
   SMASS  =  -3.00    Nose mass-parameter (am)
   estimated Nose-frequenzy (Omega)   =  0.10E-29 period in steps = 0.13E+47 mass=  -0.228E-26a.u.
   SCALEE = 1.0000    scale energy and forces
   NPACO  =    256;   APACO  = 10.0  distance and # of slots for P.C.
   PSTRESS=    0.0 pullay stress

  Mass of Ions in am
   POMASS =  26.98 16.00
  Ionic Valenz
   ZVAL   =   3.00  6.00
  Atomic Wigner-Seitz radii
   RWIGS  =  -1.00 -1.00
  virtual crystal weights 
   VCA    =   1.00  1.00
   NELECT =     384.0000    total number of electrons
   NUPDOWN=      -1.0000    fix difference up-down

 DOS related values:
   EMIN   =  10.00;   EMAX   =-10.00  energy-range for DOS
   EFERMI =   0.00
   ISMEAR =     1;   SIGMA  =   0.03  broadening in eV -4-tet -1-fermi 0-gaus

 Electronic relaxation 2 (details)
   IALGO  =     38    algorithm
   LDIAG  =      T    sub-space diagonalisation (order eigenvalues)
   LSUBROT=      F    optimize rotation matrix (better conditioning)
   TURBO    =      0    0=normal 1=particle mesh
   IRESTART =      0    0=no restart 2=restart with 2 vectors
   NREBOOT  =      0    no. of reboots
   NMIN     =      0    reboot dimension
   EREF     =   0.00    reference energy to select bands
   IMIX   =      4    mixing-type and parameters
     AMIX     =   0.40;   BMIX     =  1.00
     AMIX_MAG =   1.60;   BMIX_MAG =  1.00
     AMIN     =   0.10
     WC   =   100.;   INIMIX=   1;  MIXPRE=   1;  MAXMIX= -45

 Intra band minimization:
   WEIMIN = 0.0000     energy-eigenvalue tresh-hold
   EBREAK =  0.11E-08  absolut break condition
   DEPER  =   0.30     relativ break condition  

   TIME   =   0.40     timestep for ELM

  volume/ion in A,a.u.               =       9.38        63.27
  Fermi-wavevector in a.u.,A,eV,Ry     =   1.309641  2.474863 23.336160  1.715159
  Thomas-Fermi vector in A             =   2.440226

 Write flags
   LWAVE        =      T    write WAVECAR
   LDOWNSAMPLE  =      F    k-point downsampling of WAVECAR
   LCHARG       =      T    write CHGCAR
   LVTOT        =      F    write LOCPOT, total local potential
   LVHAR        =      F    write LOCPOT, Hartree potential only
   LELF         =      F    write electronic localiz. function (ELF)
   LORBIT       =      0    0 simple, 1 ext, 2 COOP (PROOUT), +10 PAW based schemes


 Dipole corrections
   LMONO  =      F    monopole corrections only (constant potential shift)
   LDIPOL =      F    correct potential (dipole corrections)
   IDIPOL =      0    1-x, 2-y, 3-z, 4-all directions 
   EPSILON=  1.0000000 bulk dielectric constant

 Exchange correlation treatment:
   GGA     =    --    GGA type
   LEXCH   =     8    internal setting for exchange type
   LIBXC   =     F    Libxc                    
   VOSKOWN =     0    Vosko Wilk Nusair interpolation
   LHFCALC =     F    Hartree Fock is set to
   LHFONE  =     F    Hartree Fock one center treatment
   AEXX    =    0.0000 exact exchange contribution

 Linear response parameters
   LEPSILON=     F    determine dielectric tensor
   LRPA    =     F    only Hartree local field effects (RPA)
   LNABLA  =     F    use nabla operator in PAW spheres
   LVEL    =     F    velocity operator in full k-point grid
   CSHIFT  =0.1000    complex shift for real part using Kramers Kronig
   OMEGAMAX=  -1.0    maximum frequency
   DEG_THRESHOLD= 0.2000000E-02 threshold for treating states as degnerate
   RTIME   =   -0.100 relaxation time in fs
  (WPLASMAI=    0.000 imaginary part of plasma frequency in eV, 0.658/RTIME)
   DFIELD  = 0.0000000 0.0000000 0.0000000 field for delta impulse in time

  Optional k-point grid parameters
   LKPOINTS_OPT  =     F    use optional k-point grid
   KPOINTS_OPT_MODE=     1    mode for optional k-point grid

 Orbital magnetization related:
   ORBITALMAG=     F  switch on orbital magnetization
   LCHIMAG   =     F  perturbation theory with respect to B field
   DQ        =  0.001000  dq finite difference perturbation B field
   LLRAUG    =     F  two centre corrections for induced B field



--------------------------------------------------------------------------------------------------------


 Static calculation
 charge density and potential will be updated during run
 non-spin polarized calculation
 Variant of blocked Davidson
 Davidson routine will perform the subspace rotation
 perform sub-space diagonalisation
    after iterative eigenvector-optimisation
 modified Broyden-mixing scheme, WC =      100.0
 initial mixing is a Kerker type mixing with AMIX =  0.4000 and BMIX =      1.0000
 Hartree-type preconditioning will be used
 using additional bands           41
 real space projection scheme for non local part
 use partial core corrections
 calculate Harris-corrections to forces   (improved forces if not selfconsistent)
 use gradient corrections 
 use of overlap-Matrix (Vanderbilt PP)
 Methfessel and Paxton  Order N= 1 SIGMA  =   0.03


--------------------------------------------------------------------------------------------------------


  energy-cutoff  :      400.00
  volume of cell :      750.07
      direct lattice vectors                 reciprocal lattice vectors
     9.992798840  0.000000000  0.000000000     0.100072063  0.000000000  0.000000000
     0.000000000 10.276781353  0.000000000     0.000000000  0.097306731  0.000000000
     0.000000000  0.000000000  7.303898547     0.000000000  0.000000000  0.136913183

  length of vectors
     9.992798840 10.276781353  7.303898547     0.100072063  0.097306731  0.136913183



 k-points in units of 2pi/SCALE and weight: k-points                                
   0.01250901  0.01216334  0.01711415       0.125
   0.03752702  0.01216334  0.01711415       0.125
   0.01250901  0.03649002  0.01711415       0.125
   0.03752702  0.03649002  0.01711415       0.125
   0.01250901  0.01216334  0.05134244       0.125
   0.03752702  0.01216334  0.05134244       0.125
   0.01250901  0.03649002  0.05134244       0.125
   0.03752702  0.03649002  0.05134244       0.125

 k-points in reciprocal lattice and weights: k-points                                
   0.12500000  0.12500000  0.12500000       0.125
   0.37500000  0.12500000  0.12500000       0.125
   0.12500000  0.37500000  0.12500000       0.125
   0.37500000  0.37500000  0.12500000       0.125
   0.12500000  0.12500000  0.37500000       0.125
   0.37500000  0.12500000  0.37500000       0.125
   0.12500000  0.37500000  0.37500000       0.125
   0.37500000  0.37500000  0.37500000       0.125

 position of ions in fractional coordinates (direct lattice) 
   0.12615050  0.01569722  0.38998837
   0.12615050  0.51569723  0.38998837
   0.62615052  0.01569722  0.38998837
   0.62615052  0.51569723  0.38998837
   0.12615050  0.23430279  0.61001160
   0.12615050  0.73430277  0.61001160
   0.62615052  0.23430279  0.61001160
   0.62615052  0.73430277  0.61001160
   0.12384950  0.26569723  0.11001161
   0.12384950  0.76569723  0.11001161
   0.62384948  0.26569723  0.11001161
   0.62384948  0.76569723  0.11001161
   0.12384950  0.48430277  0.88998840
   0.12384950  0.98430277  0.88998840
   0.62384948  0.48430277  0.88998840
   0.62384948  0.98430277  0.88998840
   0.37384948  0.48430277  0.61001160
   0.37384948  0.98430277  0.61001160
   0.87384948  0.48430277  0.61001160
   0.87384948  0.98430277  0.61001160
   0.37384948  0.26569723  0.38998837
   0.37384948  0.76569723  0.38998837
   0.87384948  0.26569723  0.38998837
   0.87384948  0.76569723  0.38998837
   0.37615052  0.23430279  0.88998840
   0.37615052  0.73430277  0.88998840
   0.87615052  0.23430279  0.88998840
   0.87615052  0.73430277  0.88998840
   0.37615052  0.01569722  0.11001161
   0.37615052  0.51569723  0.11001161
   0.87615052  0.01569722  0.11001161
   0.87615052  0.51569723  0.11001161
   0.05353627  0.05119550  0.65414856
   0.05353627  0.55119553  0.65414856
   0.55353624  0.05119550  0.65414856
   0.55353624  0.55119553  0.65414856
   0.05353627  0.19880450  0.34585147
   0.05353627  0.69880447  0.34585147
   0.55353624  0.19880450  0.34585147
   0.55353624  0.69880447  0.34585147
   0.19646373  0.30119550  0.84585144
   0.19646373  0.80119553  0.84585144
   0.69646370  0.30119550  0.84585144
   0.69646370  0.80119553  0.84585144
   0.19646373  0.44880450  0.15414852
   0.19646373  0.94880447  0.15414852
   0.69646370  0.44880450  0.15414852
   0.69646370  0.94880447  0.15414852
   0.44646376  0.44880450  0.34585147
   0.44646376  0.94880447  0.34585147
   0.94646376  0.44880450  0.34585147
   0.94646376  0.94880447  0.34585147
   0.44646376  0.30119550  0.65414856
   0.44646376  0.80119553  0.65414856
   0.94646376  0.30119550  0.65414856
   0.94646376  0.80119553  0.65414856
   0.30353624  0.19880450  0.15414852
   0.30353624  0.69880447  0.15414852
   0.80353624  0.19880450  0.15414852
   0.80353624  0.69880447  0.15414852
   0.30353624  0.05119550  0.84585144
   0.30353624  0.55119553  0.84585144
   0.80353624  0.05119550  0.84585144
   0.80353624  0.55119553  0.84585144
   0.02509402  0.12500000  0.00000000
   0.02509402  0.62500000  0.00000000
   0.52509405  0.12500000  0.00000000
   0.52509405  0.62500000  0.00000000
   0.22490598  0.37500000  0.50000000
   0.22490598  0.87500000  0.50000000
   0.72490601  0.37500000  0.50000000
   0.72490601  0.87500000  0.50000000
   0.47490595  0.37500000  0.00000000
   0.47490595  0.87500000  0.00000000
   0.97490595  0.37500000  0.00000000
   0.97490595  0.87500000  0.00000000
   0.27509405  0.12500000  0.50000000
   0.27509405  0.62500000  0.50000000
   0.77509405  0.12500000  0.50000000
   0.77509405  0.62500000  0.50000000

 position of ions in cartesian coordinates  (Angst):
   1.26059662  0.16131686  2.84843547
   1.26059662  5.29970765  2.84843547
   6.25699619  0.16131686  2.84843547
   6.25699619  5.29970765  2.84843547
   1.26059662  2.40787852  4.45546286
   1.26059662  7.54626904  4.45546286
   6.25699619  2.40787852  4.45546286
   6.25699619  7.54626904  4.45546286
   1.23760309  2.73051231  0.80351364
   1.23760309  7.86890299  0.80351364
   6.23400236  2.73051231  0.80351364
   6.23400236  7.86890299  0.80351364
   1.23760309  4.97707370  6.50038497
   1.23760309 10.11546438  6.50038497
   6.23400236  4.97707370  6.50038497
   6.23400236 10.11546438  6.50038497
   3.73580265  4.97707370  4.45546286
   3.73580265 10.11546438  4.45546286
   8.73220207  4.97707370  4.45546286
   8.73220207 10.11546438  4.45546286
   3.73580265  2.73051231  2.84843547
   3.73580265  7.86890299  2.84843547
   8.73220207  2.73051231  2.84843547
   8.73220207  7.86890299  2.84843547
   3.75879648  2.40787852  6.50038497
   3.75879648  7.54626904  6.50038497
   8.75519590  2.40787852  6.50038497
   8.75519590  7.54626904  6.50038497
   3.75879648  0.16131686  0.80351364
   3.75879648  5.29970765  0.80351364
   8.75519590  0.16131686  0.80351364
   8.75519590  5.29970765  0.80351364
   0.53497713  0.52612495  4.77783473
   0.53497713  5.66451594  4.77783473
   5.53137633  0.52612495  4.77783473
   5.53137633  5.66451594  4.77783473
   0.53497713  2.04307038  2.52606404
   0.53497713  7.18146075  2.52606404
   5.53137633  2.04307038  2.52606404
   5.53137633  7.18146075  2.52606404
   1.96322251  3.09532029  6.17801309
   1.96322251  8.23371128  6.17801309
   6.95962163  3.09532029  6.17801309
   6.95962163  8.23371128  6.17801309
   1.96322251  4.61226572  1.12588513
   1.96322251  9.75065609  1.12588513
   6.95962163  4.61226572  1.12588513
   6.95962163  9.75065609  1.12588513
   4.46142251  4.61226572  2.52606404
   4.46142251  9.75065609  2.52606404
   9.45782193  4.61226572  2.52606404
   9.45782193  9.75065609  2.52606404
   4.46142251  3.09532029  4.77783473
   4.46142251  8.23371128  4.77783473
   9.45782193  3.09532029  4.77783473
   9.45782193  8.23371128  4.77783473
   3.03317662  2.04307038  1.12588513
   3.03317662  7.18146075  1.12588513
   8.02957604  2.04307038  1.12588513
   8.02957604  7.18146075  1.12588513
   3.03317662  0.52612495  6.17801309
   3.03317662  5.66451594  6.17801309
   8.02957604  0.52612495  6.17801309
   8.02957604  5.66451594  6.17801309
   0.25075953  1.28459767  0.00000000
   0.25075953  6.42298835  0.00000000
   5.24715921  1.28459767  0.00000000
   5.24715921  6.42298835  0.00000000
   2.24744022  3.85379301  3.65194927
   2.24744022  8.99218368  3.65194927
   7.24383994  3.85379301  3.65194927
   7.24383994  8.99218368  3.65194927
   4.74563963  3.85379301  0.00000000
   4.74563963  8.99218368  0.00000000
   9.74203905  3.85379301  0.00000000
   9.74203905  8.99218368  0.00000000
   2.74895950  1.28459767  3.65194927
   2.74895950  6.42298835  3.65194927
   7.74535892  1.28459767  3.65194927
   7.74535892  6.42298835  3.65194927



--------------------------------------------------------------------------------------------------------


 k-point   1 :   0.1250 0.1250 0.1250  plane waves:   13626
 k-point   2 :   0.3750 0.1250 0.1250  plane waves:   13617
 k-point   3 :   0.1250 0.3750 0.1250  plane waves:   13605
 k-point   4 :   0.3750 0.3750 0.1250  plane waves:   13629
 k-point   5 :   0.1250 0.1250 0.3750  plane waves:   13641
 k-point   6 :   0.3750 0.1250 0.3750  plane waves:   13631
 k-point   7 :   0.1250 0.3750 0.3750  plane waves:   13635
 k-point   8 :   0.3750 0.3750 0.3750  plane waves:   13633

 maximum and minimum number of plane-waves per node :     13641    13605

 maximum number of plane-waves:     13641
 maximum index in each direction: 
   IXMAX=   16   IYMAX=   16   IZMAX=   11
   IXMIN=  -16   IYMIN=  -17   IZMIN=  -12


 serial   3D FFT for wavefunctions
 parallel 3D FFT for charge:
    minimum data exchange during FFTs selected (reduces bandwidth)


 total amount of memory used by VASP MPI-rank0   534290. kBytes
=======================================================================

   base      :      30000. kBytes
   nonlr-proj:       8169. kBytes
   fftplans  :      25200. kBytes
   grid      :      44760. kBytes
   one-center:        245. kBytes
   wavefun   :     425916. kBytes

     INWAV:  cpu time      0.0002: real time      0.0003
 Broyden mixing: mesh for mixing (old mesh)
   NGX = 33   NGY = 33   NGZ = 23
  (NGX  =100   NGY  =100   NGZ  = 72)
  gives a total of  25047 points

 initial charge density was supplied:
 charge density of overlapping atoms calculated
 number of electron     384.0000000 magnetization 
 keeping initial charge density in first step


--------------------------------------------------------------------------------------------------------


 Maximum index for non-local projection operator         1289
 Maximum index for augmentation-charges         4526 (set IRDMAX)


--------------------------------------------------------------------------------------------------------


 First call to EWALD:  gamma=   0.195
 Maximum number of real-space cells 3x 2x 3
 Maximum number of reciprocal cells 3x 3x 2

    FEWALD:  cpu time      0.0739: real time      0.0742


--------------------------------------- Iteration      1(   1)  ---------------------------------------


    POTLOK:  cpu time      0.3614: real time      0.3634
    SETDIJ:  cpu time      0.0809: real time      0.0813
     EDDAV:  cpu time     51.7302: real time     52.2501
       DOS:  cpu time      0.0023: real time      0.0026
    --------------------------------------------
      LOOP:  cpu time     52.1748: real time     52.6973

 eigenvalue-minimisations  :  3728
 total energy-change (2. order) : 0.1850320E+04  (-0.1727846E+05)
 number of electron     384.0000000 magnetization 
 augmentation part      384.0000000 magnetization 

 Free energy of the ion-electron system (eV)
  ---------------------------------------------------
  alpha Z        PSCENC =       550.76602018
  Ewald energy   TEWEN  =    -18736.19460332
  -Hartree energ DENC   =     -5240.33432424
  -exchange      EXHF   =         0.00000000
  -V(xc)+E(xc)   XCENC  =       512.71445142
  PAW double counting   =     18752.77991877   -17816.57094691
  entropy T*S    EENTRO =         0.00072045
  eigenvalues    EBANDS =      1365.30441908
  atomic energy  EATOM  =     22461.85434800
  Solvation  Ediel_sol  =         0.00000000
  ---------------------------------------------------
  free energy    TOTEN  =      1850.32000343 eV

  energy without entropy =     1850.31928298  energy(sigma->0) =     1850.31976328


--------------------------------------------------------------------------------------------------------




--------------------------------------- Iteration      1(   2)  ---------------------------------------


     EDDAV:  cpu time     59.2074: real time     59.7880
       DOS:  cpu time      0.0023: real time      0.0026
    --------------------------------------------
      LOOP:  cpu time     59.2098: real time     59.7905

 eigenvalue-minimisations  :  4440
 total energy-change (2. order) :-0.2358542E+04  (-0.2302033E+04)
 number of electron     384.0000000 magnetization 
 augmentation part      384.0000000 magnetization 

 Free energy of the ion-electron system (eV)
  ---------------------------------------------------
  alpha Z        PSCENC =       550.76602018
  Ewald energy   TEWEN  =    -18736.19460332
  -Hartree energ DENC   =     -5240.33432424
  -exchange      EXHF   =         0.00000000
  -V(xc)+E(xc)   XCENC  =       512.71445142
  PAW double counting   =     18752.77991877   -17816.57094691
  entropy T*S    EENTRO =         0.00040251
  eigenvalues    EBANDS =      -993.23712701
  atomic energy  EATOM  =     22461.85434800
  Solvation  Ediel_sol  =         0.00000000
  ---------------------------------------------------
  free energy    TOTEN  =      -508.22186060 eV

  energy without entropy =     -508.22226311  energy(sigma->0) =     -508.22199477


--------------------------------------------------------------------------------------------------------




--------------------------------------- Iteration      1(   3)  ---------------------------------------


     EDDAV:  cpu time     57.9833: real time     58.5407
       DOS:  cpu time      0.0025: real time      0.0027
    --------------------------------------------
      LOOP:  cpu time     57.9857: real time     58.5434

 eigenvalue-minimisations  :  4320
 total energy-change (2. order) :-0.1406640E+03  (-0.1398574E+03)
 number of electron     384.0000000 magnetization 
 augmentation part      384.0000000 magnetization 

 Free energy of the ion-electron system (eV)
  ---------------------------------------------------
  alpha Z        PSCENC =       550.76602018
  Ewald energy   TEWEN  =    -18736.19460332
  -Hartree energ DENC   =     -5240.33432424
  -exchange      EXHF   =         0.00000000
  -V(xc)+E(xc)   XCENC  =       512.71445142
  PAW double counting   =     18752.77991877   -17816.57094691
  entropy T*S    EENTRO =         0.00266139
  eigenvalues    EBANDS =     -1133.90338018
  atomic energy  EATOM  =     22461.85434800
  Solvation  Ediel_sol  =         0.00000000
  ---------------------------------------------------
  free energy    TOTEN  =      -648.88585488 eV

  energy without entropy =     -648.88851627  energy(sigma->0) =     -648.88674201


--------------------------------------------------------------------------------------------------------




--------------------------------------- Iteration      1(   4)  ---------------------------------------


     EDDAV:  cpu time     58.2603: real time     58.8205
       DOS:  cpu time      0.0026: real time      0.0028
    --------------------------------------------
      LOOP:  cpu time     58.2629: real time     58.8233

 eigenvalue-minimisations  :  4344
 total energy-change (2. order) :-0.1933611E+01  (-0.1924526E+01)
 number of electron     384.0000000 magnetization 
 augmentation part      384.0000000 magnetization 

 Free energy of the ion-electron system (eV)
  ---------------------------------------------------
  alpha Z        PSCENC =       550.76602018
  Ewald energy   TEWEN  =    -18736.19460332
  -Hartree energ DENC   =     -5240.33432424
  -exchange      EXHF   =         0.00000000
  -V(xc)+E(xc)   XCENC  =       512.71445142
  PAW double counting   =     18752.77991877   -17816.57094691
  entropy T*S    EENTRO =         0.00260435
  eigenvalues    EBANDS =     -1135.83693395
  atomic energy  EATOM  =     22461.85434800
  Solvation  Ediel_sol  =         0.00000000
  ---------------------------------------------------
  free energy    TOTEN  =      -650.81946570 eV

  energy without entropy =     -650.82207005  energy(sigma->0) =     -650.82033381


--------------------------------------------------------------------------------------------------------




--------------------------------------- Iteration      1(   5)  ---------------------------------------


     EDDAV:  cpu time     57.5804: real time     58.1286
       DOS:  cpu time      0.0024: real time      0.0027
    CHARGE:  cpu time      1.9237: real time      1.9461
    MIXING:  cpu time      0.0137: real time      0.0138
    --------------------------------------------
      LOOP:  cpu time     59.5203: real time     60.0912

 eigenvalue-minimisations  :  4304
 total energy-change (2. order) :-0.4062075E-01  (-0.4052604E-01)
 number of electron     383.9999697 magnetization 
 augmentation part       36.5998955 magnetization 

 Broyden mixing:
  rms(total) = 0.47027E+01    rms(broyden)= 0.47008E+01
  rms(prec ) = 0.62116E+01
  weight for this iteration     100.00

 Free energy of the ion-electron system (eV)
  ---------------------------------------------------
  alpha Z        PSCENC =       550.76602018
  Ewald energy   TEWEN  =    -18736.19460332
  -Hartree energ DENC   =     -5240.33432424
  -exchange      EXHF   =         0.00000000
  -V(xc)+E(xc)   XCENC  =       512.71445142
  PAW double counting   =     18752.77991877   -17816.57094691
  entropy T*S    EENTRO =         0.00261133
  eigenvalues    EBANDS =     -1135.87756168
  atomic energy  EATOM  =     22461.85434800
  Solvation  Ediel_sol  =         0.00000000
  ---------------------------------------------------
  free energy    TOTEN  =      -650.86008644 eV

  energy without entropy =     -650.86269778  energy(sigma->0) =     -650.86095689


--------------------------------------------------------------------------------------------------------




--------------------------------------- Iteration      1(   6)  ---------------------------------------


    POTLOK:  cpu time      0.3625: real time      0.3652
    SETDIJ:  cpu time      0.0902: real time      0.0907
     EDDAV:  cpu time     55.2058: real time     55.7237
       DOS:  cpu time      0.0024: real time      0.0026
    CHARGE:  cpu time      1.9240: real time      1.9418
    MIXING:  cpu time      0.0130: real time      0.0131
    --------------------------------------------
      LOOP:  cpu time     57.5978: real time     58.1370

 eigenvalue-minimisations  :  4096
 total energy-change (2. order) : 0.6237279E+02  (-0.2946136E+02)
 number of electron     383.9999752 magnetization 
 augmentation part       30.4153866 magnetization 

 Broyden mixing:
  rms(total) = 0.16669E+01    rms(broyden)= 0.16641E+01
  rms(prec ) = 0.18469E+01
  weight for this iteration     100.00

 eigenvalues of (default mixing * dielectric matrix)
  average eigenvalue GAMMA=   0.8996
  0.8996

 Free energy of the ion-electron system (eV)
  ---------------------------------------------------
  alpha Z        PSCENC =       550.76602018
  Ewald energy   TEWEN  =    -18736.19460332
  -Hartree energ DENC   =     -6000.79609508
  -exchange      EXHF   =         0.00000000
  -V(xc)+E(xc)   XCENC  =       565.33472700
  PAW double counting   =     23402.50435064   -22479.36198730
  entropy T*S    EENTRO =         0.00093156
  eigenvalues    EBANDS =      -352.59499226
  atomic energy  EATOM  =     22461.85434800
  Solvation  Ediel_sol  =         0.00000000
  ---------------------------------------------------
  free energy    TOTEN  =      -588.48730056 eV

  energy without entropy =     -588.48823213  energy(sigma->0) =     -588.48761109


--------------------------------------------------------------------------------------------------------




--------------------------------------- Iteration      1(   7)  ---------------------------------------


    POTLOK:  cpu time      0.3618: real time      0.3647
    SETDIJ:  cpu time      0.0787: real time      0.0792
     EDDAV:  cpu time     56.9136: real time     57.4524
       DOS:  cpu time      0.0024: real time      0.0026
    CHARGE:  cpu time      1.9170: real time      1.9369
    MIXING:  cpu time      0.0125: real time      0.0126
    --------------------------------------------
      LOOP:  cpu time     59.2860: real time     59.8484

 eigenvalue-minimisations  :  4256
 total energy-change (2. order) : 0.5157819E-01  (-0.5147550E+00)
 number of electron     383.9999752 magnetization 
 augmentation part       30.3537044 magnetization 

 Broyden mixing:
  rms(total) = 0.92713E+00    rms(broyden)= 0.92704E+00
  rms(prec ) = 0.10522E+01
  weight for this iteration     100.00

 eigenvalues of (default mixing * dielectric matrix)
  average eigenvalue GAMMA=   1.2887
  1.0972  1.4802

 Free energy of the ion-electron system (eV)
  ---------------------------------------------------
  alpha Z        PSCENC =       550.76602018
  Ewald energy   TEWEN  =    -18736.19460332
  -Hartree energ DENC   =     -6027.43312437
  -exchange      EXHF   =         0.00000000
  -V(xc)+E(xc)   XCENC  =       567.93343008
  PAW double counting   =     26318.70343213   -25393.82176026
  entropy T*S    EENTRO =         0.00078664
  eigenvalues    EBANDS =      -330.24425146
  atomic energy  EATOM  =     22461.85434800
  Solvation  Ediel_sol  =         0.00000000
  ---------------------------------------------------
  free energy    TOTEN  =      -588.43572238 eV

  energy without entropy =     -588.43650902  energy(sigma->0) =     -588.43598459


--------------------------------------------------------------------------------------------------------




--------------------------------------- Iteration      1(   8)  ---------------------------------------


    POTLOK:  cpu time      0.3594: real time      0.3638
    SETDIJ:  cpu time      0.0786: real time      0.0791
     EDDAV:  cpu time     56.4293: real time     56.9681
       DOS:  cpu time      0.0024: real time      0.0027
    CHARGE:  cpu time      1.9248: real time      1.9413
    MIXING:  cpu time      0.0134: real time      0.0135
    --------------------------------------------
      LOOP:  cpu time     58.8078: real time     59.3684

 eigenvalue-minimisations  :  4208
 total energy-change (2. order) : 0.9610606E-01  (-0.5385596E-01)
 number of electron     383.9999752 magnetization 
 augmentation part       30.3884691 magnetization 

 Broyden mixing:
  rms(total) = 0.28299E+00    rms(broyden)= 0.28298E+00
  rms(prec ) = 0.32980E+00
  weight for this iteration     100.00

 eigenvalues of (default mixing * dielectric matrix)
  average eigenvalue GAMMA=   1.5476
  2.5307  1.0560  1.0560

 Free energy of the ion-electron system (eV)
  ---------------------------------------------------
  alpha Z        PSCENC =       550.76602018
  Ewald energy   TEWEN  =    -18736.19460332
  -Hartree energ DENC   =     -6051.41528831
  -exchange      EXHF   =         0.00000000
  -V(xc)+E(xc)   XCENC  =       570.80199543
  PAW double counting   =     28749.03271930   -27823.01184439
  entropy T*S    EENTRO =         0.00082531
  eigenvalues    EBANDS =      -310.17378852
  atomic energy  EATOM  =     22461.85434800
  Solvation  Ediel_sol  =         0.00000000
  ---------------------------------------------------
  free energy    TOTEN  =      -588.33961632 eV

  energy without entropy =     -588.34044163  energy(sigma->0) =     -588.33989142


--------------------------------------------------------------------------------------------------------




--------------------------------------- Iteration      1(   9)  ---------------------------------------


    POTLOK:  cpu time      0.3569: real time      0.3598
    SETDIJ:  cpu time      0.0790: real time      0.0794
     EDDAV:  cpu time     57.3030: real time     57.8549
       DOS:  cpu time      0.0024: real time      0.0026
    CHARGE:  cpu time      1.9265: real time      1.9429
    MIXING:  cpu time      0.0142: real time      0.0143
    --------------------------------------------
      LOOP:  cpu time     59.6819: real time     60.2539

 eigenvalue-minimisations  :  4296
 total energy-change (2. order) :-0.4961402E-01  (-0.1371956E-01)
 number of electron     383.9999753 magnetization 
 augmentation part       30.3567469 magnetization 

 Broyden mixing:
  rms(total) = 0.69325E-01    rms(broyden)= 0.69321E-01
  rms(prec ) = 0.72077E-01
  weight for this iteration     100.00

 eigenvalues of (default mixing * dielectric matrix)
  average eigenvalue GAMMA=   1.7179
  1.0056  1.0056  2.5429  2.3175

 Free energy of the ion-electron system (eV)
  ---------------------------------------------------
  alpha Z        PSCENC =       550.76602018
  Ewald energy   TEWEN  =    -18736.19460332
  -Hartree energ DENC   =     -6074.23127896
  -exchange      EXHF   =         0.00000000
  -V(xc)+E(xc)   XCENC  =       573.13660235
  PAW double counting   =     29667.75840543   -28741.40925298
  entropy T*S    EENTRO =         0.00083501
  eigenvalues    EBANDS =      -290.07030605
  atomic energy  EATOM  =     22461.85434800
  Solvation  Ediel_sol  =         0.00000000
  ---------------------------------------------------
  free energy    TOTEN  =      -588.38923034 eV

  energy without entropy =     -588.39006535  energy(sigma->0) =     -588.38950868


--------------------------------------------------------------------------------------------------------




--------------------------------------- Iteration      1(  10)  ---------------------------------------


    POTLOK:  cpu time      0.3583: real time      0.3623
    SETDIJ:  cpu time      0.0790: real time      0.0794
     EDDAV:  cpu time     57.6928: real time     58.2382
       DOS:  cpu time      0.0024: real time      0.0027
    CHARGE:  cpu time      1.9291: real time      1.9564
    MIXING:  cpu time      0.0152: real time      0.0154
    --------------------------------------------
      LOOP:  cpu time     60.0769: real time     60.6543

 eigenvalue-minimisations  :  4336
 total energy-change (2. order) :-0.6400676E-02  (-0.2162582E-02)
 number of electron     383.9999753 magnetization 
 augmentation part       30.3206054 magnetization 

 Broyden mixing:
  rms(total) = 0.27783E-01    rms(broyden)= 0.27767E-01
  rms(prec ) = 0.32754E-01
  weight for this iteration     100.00

 eigenvalues of (default mixing * dielectric matrix)
  average eigenvalue GAMMA=   1.5685
  2.7090  2.3902  0.9925  0.9925  0.7583

 Free energy of the ion-electron system (eV)
  ---------------------------------------------------
  alpha Z        PSCENC =       550.76602018
  Ewald energy   TEWEN  =    -18736.19460332
  -Hartree energ DENC   =     -6078.60173032
  -exchange      EXHF   =         0.00000000
  -V(xc)+E(xc)   XCENC  =       573.50376758
  PAW double counting   =     29327.22110822   -28401.00092036
  entropy T*S    EENTRO =         0.00081681
  eigenvalues    EBANDS =      -285.94443781
  atomic energy  EATOM  =     22461.85434800
  Solvation  Ediel_sol  =         0.00000000
  ---------------------------------------------------
  free energy    TOTEN  =      -588.39563101 eV

  energy without entropy =     -588.39644782  energy(sigma->0) =     -588.39590328


--------------------------------------------------------------------------------------------------------




--------------------------------------- Iteration      1(  11)  ---------------------------------------


    POTLOK:  cpu time      0.3784: real time      0.3815
    SETDIJ:  cpu time      0.0791: real time      0.0795
     EDDAV:  cpu time     57.2689: real time     57.8278
       DOS:  cpu time      0.0024: real time      0.0026
    CHARGE:  cpu time      1.9375: real time      1.9691
    MIXING:  cpu time      0.0165: real time      0.0166
    --------------------------------------------
      LOOP:  cpu time     59.6828: real time     60.2771

 eigenvalue-minimisations  :  4280
 total energy-change (2. order) : 0.7186639E-03  (-0.3934378E-03)
 number of electron     383.9999753 magnetization 
 augmentation part       30.3390490 magnetization 

 Broyden mixing:
  rms(total) = 0.14111E-01    rms(broyden)= 0.14109E-01
  rms(prec ) = 0.16070E-01
  weight for this iteration     100.00

 eigenvalues of (default mixing * dielectric matrix)
  average eigenvalue GAMMA=   1.5553
  2.7741  2.4213  1.0015  1.0015  1.0667  1.0667

 Free energy of the ion-electron system (eV)
  ---------------------------------------------------
  alpha Z        PSCENC =       550.76602018
  Ewald energy   TEWEN  =    -18736.19460332
  -Hartree energ DENC   =     -6077.06554573
  -exchange      EXHF   =         0.00000000
  -V(xc)+E(xc)   XCENC  =       573.40905121
  PAW double counting   =     29285.03358996   -28358.77432980
  entropy T*S    EENTRO =         0.00082338
  eigenvalues    EBANDS =      -287.42426625
  atomic energy  EATOM  =     22461.85434800
  Solvation  Ediel_sol  =         0.00000000
  ---------------------------------------------------
  free energy    TOTEN  =      -588.39491235 eV

  energy without entropy =     -588.39573573  energy(sigma->0) =     -588.39518681


--------------------------------------------------------------------------------------------------------




--------------------------------------- Iteration      1(  12)  ---------------------------------------


    POTLOK:  cpu time      0.3781: real time      0.3818
    SETDIJ:  cpu time      0.0789: real time      0.0809
     EDDAV:  cpu time     56.7840: real time     57.3187
       DOS:  cpu time      0.0024: real time      0.0027
    CHARGE:  cpu time      1.9376: real time      1.9567
    MIXING:  cpu time      0.0175: real time      0.0176
    --------------------------------------------
      LOOP:  cpu time     59.1985: real time     59.7583

 eigenvalue-minimisations  :  4240
 total energy-change (2. order) :-0.1082713E-05  (-0.2264298E-03)
 number of electron     383.9999753 magnetization 
 augmentation part       30.3426202 magnetization 

 Broyden mixing:
  rms(total) = 0.57154E-02    rms(broyden)= 0.57019E-02
  rms(prec ) = 0.67204E-02
  weight for this iteration     100.00

 eigenvalues of (default mixing * dielectric matrix)
  average eigenvalue GAMMA=   1.4695
  2.8663  2.4398  1.0883  1.0883  0.9740  0.9149  0.9149

 Free energy of the ion-electron system (eV)
  ---------------------------------------------------
  alpha Z        PSCENC =       550.76602018
  Ewald energy   TEWEN  =    -18736.19460332
  -Hartree energ DENC   =     -6076.95336152
  -exchange      EXHF   =         0.00000000
  -V(xc)+E(xc)   XCENC  =       573.40247216
  PAW double counting   =     29248.35005541   -28322.09745180
  entropy T*S    EENTRO =         0.00082821
  eigenvalues    EBANDS =      -287.52322076
  atomic energy  EATOM  =     22461.85434800
  Solvation  Ediel_sol  =         0.00000000
  ---------------------------------------------------
  free energy    TOTEN  =      -588.39491343 eV

  energy without entropy =     -588.39574164  energy(sigma->0) =     -588.39518950


--------------------------------------------------------------------------------------------------------




--------------------------------------- Iteration      1(  13)  ---------------------------------------


    POTLOK:  cpu time      0.3819: real time      0.3852
    SETDIJ:  cpu time      0.0804: real time      0.0808
     EDDAV:  cpu time     57.2649: real time     57.8142
       DOS:  cpu time      0.0023: real time      0.0026
    CHARGE:  cpu time      1.9365: real time      1.9558
    MIXING:  cpu time      0.0176: real time      0.0177
    --------------------------------------------
      LOOP:  cpu time     59.6835: real time     60.2563

 eigenvalue-minimisations  :  4280
 total energy-change (2. order) : 0.2732876E-04  (-0.3247624E-04)
 number of electron     383.9999753 magnetization 
 augmentation part       30.3465423 magnetization 

 Broyden mixing:
  rms(total) = 0.24945E-02    rms(broyden)= 0.24925E-02
  rms(prec ) = 0.27844E-02
  weight for this iteration     100.00

 eigenvalues of (default mixing * dielectric matrix)
  average eigenvalue GAMMA=   1.5050
  2.8484  2.4127  1.8635  1.0420  1.0420  0.9010  0.9653  0.9653

 Free energy of the ion-electron system (eV)
  ---------------------------------------------------
  alpha Z        PSCENC =       550.76602018
  Ewald energy   TEWEN  =    -18736.19460332
  -Hartree energ DENC   =     -6076.47247093
  -exchange      EXHF   =         0.00000000
  -V(xc)+E(xc)   XCENC  =       573.36971608
  PAW double counting   =     29237.44652930   -28311.18129039
  entropy T*S    EENTRO =         0.00082647
  eigenvalues    EBANDS =      -287.98396149
  atomic energy  EATOM  =     22461.85434800
  Solvation  Ediel_sol  =         0.00000000
  ---------------------------------------------------
  free energy    TOTEN  =      -588.39488610 eV

  energy without entropy =     -588.39571257  energy(sigma->0) =     -588.39516159


--------------------------------------------------------------------------------------------------------




--------------------------------------- Iteration      1(  14)  ---------------------------------------


    POTLOK:  cpu time      0.3689: real time      0.3719
    SETDIJ:  cpu time      0.0792: real time      0.0841
     EDDAV:  cpu time     57.0839: real time     57.6173
       DOS:  cpu time      0.0024: real time      0.0026
    CHARGE:  cpu time      1.9396: real time      1.9643
    MIXING:  cpu time      0.0191: real time      0.0192
    --------------------------------------------
      LOOP:  cpu time     59.4931: real time     60.0594

 eigenvalue-minimisations  :  4264
 total energy-change (2. order) : 0.4040157E-05  (-0.5522979E-05)
 number of electron     383.9999753 magnetization 
 augmentation part       30.3454657 magnetization 

 Broyden mixing:
  rms(total) = 0.95301E-03    rms(broyden)= 0.95185E-03
  rms(prec ) = 0.10054E-02
  weight for this iteration     100.00

 eigenvalues of (default mixing * dielectric matrix)
  average eigenvalue GAMMA=   1.5393
  2.9714  2.5861  2.2735  0.9509  0.9509  1.1297  1.0542  1.0542  0.8830

 Free energy of the ion-electron system (eV)
  ---------------------------------------------------
  alpha Z        PSCENC =       550.76602018
  Ewald energy   TEWEN  =    -18736.19460332
  -Hartree energ DENC   =     -6076.57845035
  -exchange      EXHF   =         0.00000000
  -V(xc)+E(xc)   XCENC  =       573.37412679
  PAW double counting   =     29233.30981109   -28307.04461767
  entropy T*S    EENTRO =         0.00082594
  eigenvalues    EBANDS =      -287.88234272
  atomic energy  EATOM  =     22461.85434800
  Solvation  Ediel_sol  =         0.00000000
  ---------------------------------------------------
  free energy    TOTEN  =      -588.39488206 eV

  energy without entropy =     -588.39570800  energy(sigma->0) =     -588.39515738


--------------------------------------------------------------------------------------------------------




--------------------------------------- Iteration      1(  15)  ---------------------------------------


    POTLOK:  cpu time      0.3735: real time      0.3781
    SETDIJ:  cpu time      0.0790: real time      0.0795
     EDDAV:  cpu time     56.3053: real time     56.8398
       DOS:  cpu time      0.0025: real time      0.0027
    --------------------------------------------
      LOOP:  cpu time     56.7602: real time     57.3001

 eigenvalue-minimisations  :  4192
 total energy-change (2. order) :-0.2116794E-06  (-0.6018596E-06)
 number of electron     383.9999753 magnetization 
 augmentation part       30.3454657 magnetization 

 Free energy of the ion-electron system (eV)
  ---------------------------------------------------
  alpha Z        PSCENC =       550.76602018
  Ewald energy   TEWEN  =    -18736.19460332
  -Hartree energ DENC   =     -6076.66067679
  -exchange      EXHF   =         0.00000000
  -V(xc)+E(xc)   XCENC  =       573.37868666
  PAW double counting   =     29229.10980126   -28302.84407428
  entropy T*S    EENTRO =         0.00082574
  eigenvalues    EBANDS =      -287.80520974
  atomic energy  EATOM  =     22461.85434800
  Solvation  Ediel_sol  =         0.00000000
  ---------------------------------------------------
  free energy    TOTEN  =      -588.39488228 eV

  energy without entropy =     -588.39570801  energy(sigma->0) =     -588.39515752


--------------------------------------------------------------------------------------------------------




 average (electrostatic) potential at core
  the test charge radii are     1.0406  0.7215
  (the norm of the test charge is              1.0000)
       1 -72.9764       2 -72.9764       3 -72.9764       4 -72.9764       5 -72.9764
       6 -72.9764       7 -72.9764       8 -72.9764       9 -72.9764      10 -72.9764
      11 -72.9764      12 -72.9764      13 -72.9764      14 -72.9764      15 -72.9764
      16 -72.9764      17 -72.9764      18 -72.9764      19 -72.9764      20 -72.9764
      21 -72.9764      22 -72.9764      23 -72.9764      24 -72.9764      25 -72.9764
      26 -72.9764      27 -72.9764      28 -72.9764      29 -72.9764      30 -72.9764
      31 -72.9764      32 -72.9764      33 -67.9919      34 -67.9919      35 -67.9919
      36 -67.9919      37 -67.9919      38 -67.9919      39 -67.9919      40 -67.9919
      41 -67.9919      42 -67.9919      43 -67.9919      44 -67.9919      45 -67.9919
      46 -67.9919      47 -67.9919      48 -67.9919      49 -67.9919      50 -67.9919
      51 -67.9919      52 -67.9919      53 -67.9919      54 -67.9919      55 -67.9919
      56 -67.9919      57 -67.9919      58 -67.9919      59 -67.9919      60 -67.9919
      61 -67.9919      62 -67.9919      63 -67.9919      64 -67.9919      65 -67.8995
      66 -67.8995      67 -67.8995      68 -67.8995      69 -67.8995      70 -67.8995
      71 -67.8995      72 -67.8995      73 -67.8995      74 -67.8996      75 -67.8995
      76 -67.8995      77 -67.8995      78 -67.8995      79 -67.8995      80 -67.8995



 E-fermi :   5.2966     XC(G=0): -11.2863     alpha+bet :-15.2642

 Fermi energy:         5.2966267006

 k-point     1 :       0.1250    0.1250    0.1250
  band No.  band energies     occupation 
      1     -13.1578      2.00000
      2     -12.6468      2.00000
      3     -12.6287      2.00000
      4     -12.3459      2.00000
      5     -12.3296      2.00000
      6     -12.3129      2.00000
      7     -12.1881      2.00000
      8     -11.9439      2.00000
      9     -11.9377      2.00000
     10     -11.8869      2.00000
     11     -11.8830      2.00000
     12     -11.7567      2.00000
     13     -11.6949      2.00000
     14     -11.6442      2.00000
     15     -11.5277      2.00000
     16     -11.4639      2.00000
     17     -11.4565      2.00000
     18     -11.3932      2.00000
     19     -11.3497      2.00000
     20     -11.3320      2.00000
     21     -11.2848      2.00000
     22     -11.2775      2.00000
     23     -11.2495      2.00000
     24     -11.1922      2.00000
     25     -11.1893      2.00000
     26     -11.1875      2.00000
     27     -11.1554      2.00000
     28     -11.1050      2.00000
     29     -11.0782      2.00000
     30     -11.0244      2.00000
     31     -10.9967      2.00000
     32     -10.9770      2.00000
     33     -10.8881      2.00000
     34     -10.8637      2.00000
     35     -10.8616      2.00000
     36     -10.8543      2.00000
     37     -10.8277      2.00000
     38     -10.8259      2.00000
     39     -10.8250      2.00000
     40     -10.8209      2.00000
     41     -10.7668      2.00000
     42     -10.7526      2.00000
     43     -10.7487      2.00000
     44     -10.7270      2.00000
     45     -10.6795      2.00000
     46     -10.6336      2.00000
     47     -10.5799      2.00000
     48     -10.5569      2.00000
     49      -0.5592      2.00000
     50      -0.5389      2.00000
     51      -0.4278      2.00000
     52      -0.4043      2.00000
     53      -0.3854      2.00000
     54      -0.3557      2.00000
     55      -0.2761      2.00000
     56      -0.2390      2.00000
     57      -0.1768      2.00000
     58      -0.1499      2.00000
     59      -0.1470      2.00000
     60      -0.1277      2.00000
     61      -0.0671      2.00000
     62       0.0036      2.00000
     63       0.0261      2.00000
     64       0.0851      2.00000
     65       0.1113      2.00000
     66       0.2792      2.00000
     67       0.3893      2.00000
     68       0.5362      2.00000
     69       0.5813      2.00000
     70       0.5823      2.00000
     71       0.6128      2.00000
     72       0.6608      2.00000
     73       0.6821      2.00000
     74       0.7223      2.00000
     75       0.8067      2.00000
     76       0.8557      2.00000
     77       0.9568      2.00000
     78       1.0421      2.00000
     79       1.0570      2.00000
     80       1.1836      2.00000
     81       1.1899      2.00000
     82       1.1957      2.00000
     83       1.2405      2.00000
     84       1.3153      2.00000
     85       1.3722      2.00000
     86       1.3790      2.00000
     87       1.4005      2.00000
     88       1.4145      2.00000
     89       1.4431      2.00000
     90       1.4699      2.00000
     91       1.5097      2.00000
     92       1.5390      2.00000
     93       1.5571      2.00000
     94       1.6432      2.00000
     95       1.7040      2.00000
     96       1.8471      2.00000
     97       1.8809      2.00000
     98       1.9167      2.00000
     99       1.9835      2.00000
    100       2.1246      2.00000
    101       2.1540      2.00000
    102       2.2225      2.00000
    103       2.2538      2.00000
    104       2.3038      2.00000
    105       2.4400      2.00000
    106       2.4720      2.00000
    107       2.5135      2.00000
    108       2.5498      2.00000
    109       2.5852      2.00000
    110       2.7134      2.00000
    111       2.7213      2.00000
    112       2.7954      2.00000
    113       2.8056      2.00000
    114       2.8339      2.00000
    115       2.9257      2.00000
    116       2.9353      2.00000
    117       2.9362      2.00000
    118       2.9625      2.00000
    119       2.9747      2.00000
    120       3.0915      2.00000
    121       3.0919      2.00000
    122       3.1252      2.00000
    123       3.1317      2.00000
    124       3.2200      2.00000
    125       3.2491      2.00000
    126       3.2836      2.00000
    127       3.3421      2.00000
    128       3.3764      2.00000
    129       3.4364      2.00000
    130       3.4657      2.00000
    131       3.5962      2.00000
    132       3.6265      2.00000
    133       3.6296      2.00000
    134       3.6363      2.00000
    135       3.7165      2.00000
    136       3.7910      2.00000
    137       3.7930      2.00000
    138       3.8055      2.00000
    139       3.8432      2.00000
    140       3.8663      2.00000
    141       3.9182      2.00000
    142       3.9497      2.00000
    143       4.0017      2.00000
    144       4.0139      2.00000
    145       4.0181      2.00000
    146       4.0340      2.00000
    147       4.0362      2.00000
    148       4.0710      2.00000
    149       4.1239      2.00000
    150       4.1770      2.00000
    151       4.1789      2.00000
    152       4.1812      2.00000
    153       4.2162      2.00000
    154       4.2477      2.00000
    155       4.2508      2.00000
    156       4.2620      2.00000
    157       4.3423      2.00000
    158       4.3633      2.00000
    159       4.4218      2.00000
    160       4.4374      2.00000
    161       4.4383      2.00000
    162       4.4675      2.00000
    163       4.4861      2.00000
    164       4.4966      2.00000
    165       4.5645      2.00000
    166       4.5890      2.00000
    167       4.5921      2.00000
    168       4.6862      2.00000
    169       4.7034      2.00000
    170       4.7089      2.00000
    171       4.7297      2.00000
    172       4.7861      2.00000
    173       4.7921      2.00000
    174       4.7960      2.00000
    175       4.8322      2.00000
    176       4.8958      2.00000
[...]
     0.000000000 10.276781353  0.000000000     0.000000000  0.097306731  0.000000000
     0.000000000  0.000000000  7.303898547     0.000000000  0.000000000  0.136913183

  length of vectors
     9.992798840 10.276781353  7.303898547     0.100072063  0.097306731  0.136913183


 FORCES acting on ions
    electron-ion (+dipol)            ewald-force                    non-local-force                 convergence-correction
 -----------------------------------------------------------------------------------------------
   0.310E+01 -.271E+01 0.153E+02   -.304E+01 0.652E+00 -.146E+02   -.631E-01 0.186E+01 -.606E+00   0.202E-03 -.416E-04 0.205E-03
   0.310E+01 -.271E+01 0.153E+02   -.304E+01 0.652E+00 -.146E+02   -.631E-01 0.186E+01 -.606E+00   0.202E-03 -.380E-04 0.205E-03
   0.310E+01 -.271E+01 0.153E+02   -.304E+01 0.652E+00 -.146E+02   -.631E-01 0.186E+01 -.606E+00   0.200E-03 -.416E-04 0.205E-03
   0.310E+01 -.271E+01 0.153E+02   -.304E+01 0.652E+00 -.146E+02   -.631E-01 0.186E+01 -.606E+00   0.200E-03 -.380E-04 0.205E-03
   0.310E+01 0.271E+01 -.153E+02   -.304E+01 -.652E+00 0.146E+02   -.631E-01 -.186E+01 0.606E+00   0.202E-03 0.398E-04 -.204E-03
   0.310E+01 0.271E+01 -.153E+02   -.304E+01 -.652E+00 0.146E+02   -.631E-01 -.186E+01 0.606E+00   0.202E-03 0.398E-04 -.204E-03
   0.310E+01 0.271E+01 -.153E+02   -.304E+01 -.652E+00 0.146E+02   -.631E-01 -.186E+01 0.606E+00   0.200E-03 0.398E-04 -.204E-03
   0.310E+01 0.271E+01 -.153E+02   -.304E+01 -.652E+00 0.146E+02   -.631E-01 -.186E+01 0.606E+00   0.200E-03 0.397E-04 -.204E-03
   -.310E+01 -.271E+01 -.153E+02   0.304E+01 0.652E+00 0.146E+02   0.631E-01 0.186E+01 0.606E+00   -.200E-03 -.392E-04 -.205E-03
   -.310E+01 -.271E+01 -.153E+02   0.304E+01 0.652E+00 0.146E+02   0.631E-01 0.186E+01 0.606E+00   -.200E-03 -.403E-04 -.205E-03
   -.310E+01 -.271E+01 -.153E+02   0.304E+01 0.652E+00 0.146E+02   0.631E-01 0.186E+01 0.606E+00   -.202E-03 -.392E-04 -.205E-03
   -.310E+01 -.271E+01 -.153E+02   0.304E+01 0.652E+00 0.146E+02   0.631E-01 0.186E+01 0.606E+00   -.202E-03 -.403E-04 -.205E-03
   -.310E+01 0.271E+01 0.153E+02   0.304E+01 -.652E+00 -.146E+02   0.631E-01 -.186E+01 -.606E+00   -.200E-03 0.416E-04 0.205E-03
   -.310E+01 0.271E+01 0.153E+02   0.304E+01 -.652E+00 -.146E+02   0.631E-01 -.186E+01 -.606E+00   -.200E-03 0.379E-04 0.204E-03
   -.310E+01 0.271E+01 0.153E+02   0.304E+01 -.652E+00 -.146E+02   0.631E-01 -.186E+01 -.606E+00   -.202E-03 0.416E-04 0.205E-03
   -.310E+01 0.271E+01 0.153E+02   0.304E+01 -.652E+00 -.146E+02   0.631E-01 -.186E+01 -.606E+00   -.202E-03 0.379E-04 0.204E-03
   -.310E+01 0.271E+01 -.153E+02   0.304E+01 -.652E+00 0.146E+02   0.631E-01 -.186E+01 0.606E+00   -.201E-03 0.416E-04 -.204E-03
   -.310E+01 0.271E+01 -.153E+02   0.304E+01 -.652E+00 0.146E+02   0.631E-01 -.186E+01 0.606E+00   -.201E-03 0.379E-04 -.204E-03
   -.310E+01 0.271E+01 -.153E+02   0.304E+01 -.652E+00 0.146E+02   0.631E-01 -.186E+01 0.606E+00   -.201E-03 0.416E-04 -.204E-03
   -.310E+01 0.271E+01 -.153E+02   0.304E+01 -.652E+00 0.146E+02   0.631E-01 -.186E+01 0.606E+00   -.201E-03 0.379E-04 -.204E-03
   -.310E+01 -.271E+01 0.153E+02   0.304E+01 0.652E+00 -.146E+02   0.631E-01 0.186E+01 -.606E+00   -.201E-03 -.392E-04 0.205E-03
   -.310E+01 -.271E+01 0.153E+02   0.304E+01 0.652E+00 -.146E+02   0.631E-01 0.186E+01 -.606E+00   -.201E-03 -.403E-04 0.205E-03
   -.310E+01 -.271E+01 0.153E+02   0.304E+01 0.652E+00 -.146E+02   0.631E-01 0.186E+01 -.606E+00   -.201E-03 -.392E-04 0.205E-03
   -.310E+01 -.271E+01 0.153E+02   0.304E+01 0.652E+00 -.146E+02   0.631E-01 0.186E+01 -.606E+00   -.201E-03 -.403E-04 0.205E-03
   0.310E+01 0.271E+01 0.153E+02   -.304E+01 -.652E+00 -.146E+02   -.631E-01 -.186E+01 -.606E+00   0.201E-03 0.398E-04 0.204E-03
   0.310E+01 0.271E+01 0.153E+02   -.304E+01 -.652E+00 -.146E+02   -.631E-01 -.186E+01 -.606E+00   0.201E-03 0.398E-04 0.205E-03
   0.310E+01 0.271E+01 0.153E+02   -.304E+01 -.652E+00 -.146E+02   -.631E-01 -.186E+01 -.606E+00   0.201E-03 0.398E-04 0.204E-03
   0.310E+01 0.271E+01 0.153E+02   -.304E+01 -.652E+00 -.146E+02   -.631E-01 -.186E+01 -.606E+00   0.201E-03 0.397E-04 0.204E-03
   0.310E+01 -.271E+01 -.153E+02   -.304E+01 0.652E+00 0.146E+02   -.631E-01 0.186E+01 0.606E+00   0.201E-03 -.416E-04 -.205E-03
   0.310E+01 -.271E+01 -.153E+02   -.304E+01 0.652E+00 0.146E+02   -.631E-01 0.186E+01 0.606E+00   0.201E-03 -.380E-04 -.205E-03
   0.310E+01 -.271E+01 -.153E+02   -.304E+01 0.652E+00 0.146E+02   -.631E-01 0.186E+01 0.606E+00   0.201E-03 -.416E-04 -.205E-03
   0.310E+01 -.271E+01 -.153E+02   -.304E+01 0.652E+00 0.146E+02   -.631E-01 0.186E+01 0.606E+00   0.201E-03 -.380E-04 -.205E-03
   0.629E+01 0.307E+01 -.172E+02   -.504E+01 -.240E+01 0.180E+02   -.131E+01 -.733E+00 -.863E+00   -.107E-03 0.560E-04 -.728E-03
   0.629E+01 0.307E+01 -.172E+02   -.504E+01 -.240E+01 0.180E+02   -.131E+01 -.733E+00 -.863E+00   -.107E-03 0.640E-04 -.729E-03
   0.629E+01 0.307E+01 -.172E+02   -.504E+01 -.240E+01 0.180E+02   -.131E+01 -.733E+00 -.863E+00   -.111E-03 0.560E-04 -.728E-03
   0.629E+01 0.307E+01 -.172E+02   -.504E+01 -.240E+01 0.180E+02   -.131E+01 -.733E+00 -.863E+00   -.111E-03 0.640E-04 -.728E-03
   0.629E+01 -.307E+01 0.172E+02   -.504E+01 0.240E+01 -.180E+02   -.131E+01 0.733E+00 0.863E+00   -.107E-03 -.604E-04 0.730E-03
   0.629E+01 -.307E+01 0.172E+02   -.504E+01 0.240E+01 -.180E+02   -.131E+01 0.733E+00 0.863E+00   -.107E-03 -.596E-04 0.730E-03
   0.629E+01 -.307E+01 0.172E+02   -.504E+01 0.240E+01 -.180E+02   -.131E+01 0.733E+00 0.863E+00   -.111E-03 -.604E-04 0.729E-03
   0.629E+01 -.307E+01 0.172E+02   -.504E+01 0.240E+01 -.180E+02   -.131E+01 0.733E+00 0.863E+00   -.111E-03 -.596E-04 0.729E-03
   -.629E+01 0.307E+01 0.172E+02   0.504E+01 -.240E+01 -.180E+02   0.131E+01 -.733E+00 0.863E+00   0.111E-03 0.618E-04 0.729E-03
   -.629E+01 0.307E+01 0.172E+02   0.504E+01 -.240E+01 -.180E+02   0.131E+01 -.733E+00 0.863E+00   0.111E-03 0.584E-04 0.729E-03
   -.629E+01 0.307E+01 0.172E+02   0.505E+01 -.240E+01 -.180E+02   0.131E+01 -.733E+00 0.863E+00   0.106E-03 0.618E-04 0.730E-03
   -.629E+01 0.307E+01 0.172E+02   0.505E+01 -.240E+01 -.180E+02   0.131E+01 -.733E+00 0.863E+00   0.106E-03 0.583E-04 0.730E-03
   -.629E+01 -.307E+01 -.172E+02   0.504E+01 0.240E+01 0.180E+02   0.131E+01 0.733E+00 -.863E+00   0.111E-03 -.556E-04 -.730E-03
   -.629E+01 -.307E+01 -.172E+02   0.505E+01 0.240E+01 0.180E+02   0.131E+01 0.733E+00 -.863E+00   0.111E-03 -.645E-04 -.731E-03
   -.629E+01 -.307E+01 -.172E+02   0.505E+01 0.240E+01 0.180E+02   0.131E+01 0.733E+00 -.863E+00   0.106E-03 -.556E-04 -.731E-03
   -.629E+01 -.307E+01 -.172E+02   0.505E+01 0.240E+01 0.180E+02   0.131E+01 0.733E+00 -.863E+00   0.106E-03 -.645E-04 -.731E-03
   -.629E+01 -.307E+01 0.172E+02   0.504E+01 0.240E+01 -.180E+02   0.131E+01 0.733E+00 0.863E+00   0.108E-03 -.556E-04 0.729E-03
   -.629E+01 -.307E+01 0.172E+02   0.504E+01 0.240E+01 -.180E+02   0.131E+01 0.733E+00 0.863E+00   0.108E-03 -.645E-04 0.730E-03
   -.629E+01 -.307E+01 0.172E+02   0.504E+01 0.240E+01 -.180E+02   0.131E+01 0.733E+00 0.863E+00   0.110E-03 -.556E-04 0.729E-03
   -.629E+01 -.307E+01 0.172E+02   0.504E+01 0.240E+01 -.180E+02   0.131E+01 0.733E+00 0.863E+00   0.110E-03 -.645E-04 0.730E-03
   -.629E+01 0.307E+01 -.172E+02   0.504E+01 -.240E+01 0.180E+02   0.131E+01 -.733E+00 -.863E+00   0.108E-03 0.618E-04 -.728E-03
   -.629E+01 0.307E+01 -.172E+02   0.504E+01 -.240E+01 0.180E+02   0.131E+01 -.733E+00 -.863E+00   0.108E-03 0.584E-04 -.728E-03
   -.629E+01 0.307E+01 -.172E+02   0.504E+01 -.240E+01 0.180E+02   0.131E+01 -.733E+00 -.863E+00   0.110E-03 0.618E-04 -.729E-03
   -.629E+01 0.307E+01 -.172E+02   0.504E+01 -.240E+01 0.180E+02   0.131E+01 -.733E+00 -.863E+00   0.110E-03 0.584E-04 -.728E-03
   0.629E+01 -.307E+01 -.172E+02   -.504E+01 0.240E+01 0.180E+02   -.131E+01 0.733E+00 -.863E+00   -.108E-03 -.604E-04 -.731E-03
   0.629E+01 -.307E+01 -.172E+02   -.504E+01 0.240E+01 0.180E+02   -.131E+01 0.733E+00 -.863E+00   -.108E-03 -.596E-04 -.731E-03
   0.629E+01 -.307E+01 -.172E+02   -.504E+01 0.240E+01 0.180E+02   -.131E+01 0.733E+00 -.863E+00   -.110E-03 -.604E-04 -.731E-03
   0.629E+01 -.307E+01 -.172E+02   -.504E+01 0.240E+01 0.180E+02   -.131E+01 0.733E+00 -.863E+00   -.110E-03 -.596E-04 -.731E-03
   0.629E+01 0.307E+01 0.172E+02   -.504E+01 -.240E+01 -.180E+02   -.131E+01 -.733E+00 0.863E+00   -.108E-03 0.560E-04 0.729E-03
   0.629E+01 0.307E+01 0.172E+02   -.504E+01 -.240E+01 -.180E+02   -.131E+01 -.733E+00 0.863E+00   -.108E-03 0.640E-04 0.730E-03
   0.629E+01 0.307E+01 0.172E+02   -.504E+01 -.240E+01 -.180E+02   -.131E+01 -.733E+00 0.863E+00   -.110E-03 0.560E-04 0.729E-03
   0.629E+01 0.307E+01 0.172E+02   -.504E+01 -.240E+01 -.180E+02   -.131E+01 -.733E+00 0.863E+00   -.110E-03 0.640E-04 0.730E-03
   -.186E+02 -.498E-04 -.473E-04   0.194E+02 0.107E-04 0.366E-04   -.838E+00 -.343E-18 0.150E-19   -.289E-03 -.257E-05 -.158E-05
   -.186E+02 -.478E-04 -.437E-04   0.194E+02 -.384E-05 0.436E-05   -.838E+00 -.304E-18 0.213E-19   -.289E-03 0.256E-05 -.770E-06
   -.186E+02 -.498E-04 -.473E-04   0.194E+02 0.107E-04 0.366E-04   -.838E+00 -.399E-18 0.146E-19   -.292E-03 -.257E-05 -.158E-05
   -.186E+02 -.478E-04 -.437E-04   0.194E+02 -.384E-05 0.436E-05   -.838E+00 -.364E-18 0.188E-19   -.292E-03 0.256E-05 -.770E-06
   0.186E+02 -.491E-04 -.330E-04   -.194E+02 -.130E-05 -.170E-04   0.838E+00 -.261E-21 0.829E-19   0.292E-03 0.354E-05 0.827E-06
   0.186E+02 -.505E-04 -.294E-04   -.194E+02 0.141E-04 -.388E-04   0.838E+00 -.212E-18 0.338E-19   0.292E-03 -.355E-05 0.155E-05
   0.186E+02 -.491E-04 -.330E-04   -.194E+02 -.130E-05 -.170E-04   0.838E+00 0.867E-21 0.107E-18   0.289E-03 0.354E-05 0.827E-06
   0.186E+02 -.505E-04 -.294E-04   -.194E+02 0.141E-04 -.388E-04   0.838E+00 0.287E-20 0.594E-19   0.289E-03 -.355E-05 0.155E-05
   0.186E+02 -.473E-04 -.411E-04   -.194E+02 -.357E-05 0.107E-04   0.838E+00 -.190E-19 -.692E-19   0.290E-03 0.354E-05 -.811E-06
   0.186E+02 -.487E-04 -.448E-04   -.194E+02 0.118E-04 0.326E-04   0.838E+00 -.401E-19 -.853E-19   0.290E-03 -.355E-05 -.154E-05
   0.186E+02 -.473E-04 -.411E-04   -.194E+02 -.357E-05 0.107E-04   0.838E+00 0.372E-20 -.687E-19   0.292E-03 0.354E-05 -.811E-06
   0.186E+02 -.487E-04 -.448E-04   -.194E+02 0.118E-04 0.326E-04   0.838E+00 -.701E-19 -.341E-19   0.292E-03 -.355E-05 -.154E-05
   -.186E+02 -.504E-04 -.320E-04   0.194E+02 0.130E-04 -.429E-04   -.838E+00 -.247E-18 -.206E-19   -.289E-03 -.257E-05 0.159E-05
   -.186E+02 -.484E-04 -.356E-04   0.194E+02 -.157E-05 -.106E-04   -.838E+00 -.241E-18 -.160E-19   -.289E-03 0.256E-05 0.785E-06
   -.186E+02 -.504E-04 -.320E-04   0.194E+02 0.130E-04 -.429E-04   -.838E+00 -.244E-18 -.194E-19   -.292E-03 -.257E-05 0.159E-05
   -.186E+02 -.484E-04 -.356E-04   0.194E+02 -.157E-05 -.106E-04   -.838E+00 -.253E-18 -.175E-19   -.292E-03 0.256E-05 0.785E-06
 -----------------------------------------------------------------------------------------------
   0.526E-02 -.254E-02 -.816E-03   -.128E-12 0.125E-12 0.230E-13   -.444E-15 -.891E-15 -.122E-14   0.161E-06 -.356E-07 0.166E-08


 POSITION                                       TOTAL-FORCE (eV/Angst)
 -----------------------------------------------------------------------------------
      1.26060      0.16132      2.84844        -0.002290     -0.204558      0.150173
      1.26060      5.29971      2.84844        -0.002290     -0.204558      0.150173
      6.25700      0.16132      2.84844        -0.002290     -0.204558      0.150173
      6.25700      5.29971      2.84844        -0.002290     -0.204558      0.150173
      1.26060      2.40788      4.45546        -0.002290      0.204558     -0.150173
      1.26060      7.54627      4.45546        -0.002290      0.204558     -0.150173
      6.25700      2.40788      4.45546        -0.002290      0.204558     -0.150173
      6.25700      7.54627      4.45546        -0.002290      0.204558     -0.150173
      1.23760      2.73051      0.80351         0.002290     -0.204558     -0.150173
      1.23760      7.86890      0.80351         0.002290     -0.204558     -0.150173
      6.23400      2.73051      0.80351         0.002290     -0.204558     -0.150173
      6.23400      7.86890      0.80351         0.002290     -0.204558     -0.150173
      1.23760      4.97707      6.50038         0.002290      0.204558      0.150173
      1.23760     10.11546      6.50038         0.002290      0.204558      0.150173
      6.23400      4.97707      6.50038         0.002290      0.204558      0.150173
      6.23400     10.11546      6.50038         0.002290      0.204558      0.150173
      3.73580      4.97707      4.45546         0.002290      0.204558     -0.150173
      3.73580     10.11546      4.45546         0.002290      0.204558     -0.150173
      8.73220      4.97707      4.45546         0.002290      0.204558     -0.150173
      8.73220     10.11546      4.45546         0.002290      0.204558     -0.150173
      3.73580      2.73051      2.84844         0.002290     -0.204558      0.150173
      3.73580      7.86890      2.84844         0.002290     -0.204558      0.150173
      8.73220      2.73051      2.84844         0.002290     -0.204558      0.150173
      8.73220      7.86890      2.84844         0.002290     -0.204558      0.150173
      3.75880      2.40788      6.50038        -0.002290      0.204558      0.150173
      3.75880      7.54627      6.50038        -0.002290      0.204558      0.150173
      8.75520      2.40788      6.50038        -0.002290      0.204558      0.150173
      8.75520      7.54627      6.50038        -0.002290      0.204558      0.150173
      3.75880      0.16132      0.80351        -0.002290     -0.204558     -0.150173
      3.75880      5.29971      0.80351        -0.002290     -0.204558     -0.150173
      8.75520      0.16132      0.80351        -0.002290     -0.204558     -0.150173
      8.75520      5.29971      0.80351        -0.002290     -0.204558     -0.150173
      0.53498      0.52612      4.77783        -0.067136     -0.063151     -0.094853
      0.53498      5.66452      4.77783        -0.067136     -0.063151     -0.094853
      5.53138      0.52612      4.77783        -0.067136     -0.063151     -0.094853
      5.53138      5.66452      4.77783        -0.067136     -0.063151     -0.094853
      0.53498      2.04307      2.52606        -0.067136      0.063151      0.094853
      0.53498      7.18146      2.52606        -0.067136      0.063151      0.094853
      5.53138      2.04307      2.52606        -0.067136      0.063151      0.094853
      5.53138      7.18146      2.52606        -0.067136      0.063151      0.094853
      1.96322      3.09532      6.17801         0.067136     -0.063151      0.094853
      1.96322      8.23371      6.17801         0.067136     -0.063151      0.094853
      6.95962      3.09532      6.17801         0.067136     -0.063151      0.094853
      6.95962      8.23371      6.17801         0.067136     -0.063151      0.094853
      1.96322      4.61227      1.12589         0.067136      0.063151     -0.094853
      1.96322      9.75066      1.12589         0.067136      0.063151     -0.094853
      6.95962      4.61227      1.12589         0.067136      0.063151     -0.094853
      6.95962      9.75066      1.12589         0.067136      0.063151     -0.094853
      4.46142      4.61227      2.52606         0.067136      0.063151      0.094853
      4.46142      9.75066      2.52606         0.067136      0.063151      0.094853
      9.45782      4.61227      2.52606         0.067136      0.063151      0.094853
      9.45782      9.75066      2.52606         0.067136      0.063151      0.094853
      4.46142      3.09532      4.77783         0.067136     -0.063151     -0.094853
      4.46142      8.23371      4.77783         0.067136     -0.063151     -0.094853
      9.45782      3.09532      4.77783         0.067136     -0.063151     -0.094853
      9.45782      8.23371      4.77783         0.067136     -0.063151     -0.094853
      3.03318      2.04307      1.12589        -0.067136      0.063151     -0.094853
      3.03318      7.18146      1.12589        -0.067136      0.063151     -0.094853
      8.02958      2.04307      1.12589        -0.067136      0.063151     -0.094853
      8.02958      7.18146      1.12589        -0.067136      0.063151     -0.094853
      3.03318      0.52612      6.17801        -0.067136     -0.063151      0.094853
      3.03318      5.66452      6.17801        -0.067136     -0.063151      0.094853
      8.02958      0.52612      6.17801        -0.067136     -0.063151      0.094853
      8.02958      5.66452      6.17801        -0.067136     -0.063151      0.094853
      0.25076      1.28460      0.00000        -0.109020     -0.000000      0.000000
      0.25076      6.42299      0.00000        -0.109020     -0.000000      0.000000
      5.24716      1.28460      0.00000        -0.109020     -0.000000      0.000000
      5.24716      6.42299      0.00000        -0.109020     -0.000000      0.000000
      2.24744      3.85379      3.65195         0.109020     -0.000000      0.000000
      2.24744      8.99218      3.65195         0.109020     -0.000000      0.000000
      7.24384      3.85379      3.65195         0.109020     -0.000000      0.000000
      7.24384      8.99218      3.65195         0.109020     -0.000000      0.000000
      4.74564      3.85379      0.00000         0.109020     -0.000000      0.000000
      4.74564      8.99218      0.00000         0.109020     -0.000000      0.000000
      9.74204      3.85379      0.00000         0.109020     -0.000000      0.000000
      9.74204      8.99218      0.00000         0.109020     -0.000000      0.000000
      2.74896      1.28460      3.65195        -0.109020     -0.000000      0.000000
      2.74896      6.42299      3.65195        -0.109020     -0.000000      0.000000
      7.74536      1.28460      3.65195        -0.109020     -0.000000      0.000000
      7.74536      6.42299      3.65195        -0.109020     -0.000000      0.000000
 -----------------------------------------------------------------------------------
    total drift:                                0.005263     -0.002542     -0.000816


--------------------------------------------------------------------------------------------------------



  FREE ENERGIE OF THE ION-ELECTRON SYSTEM (eV)
  ---------------------------------------------------
  free  energy   TOTEN  =      -588.39488228 eV

  energy  without entropy=     -588.39570801  energy(sigma->0) =     -588.39515752



--------------------------------------------------------------------------------------------------------


    POTLOK:  cpu time      0.4183: real time      0.4370


--------------------------------------------------------------------------------------------------------


 writing wavefunctions
     LOOP+:  cpu time    936.7478: real time    945.7880
    4ORBIT:  cpu time      0.0000: real time      0.0000

 total amount of memory used by VASP MPI-rank0   534290. kBytes
=======================================================================

   base      :      30000. kBytes
   nonlr-proj:       8169. kBytes
   fftplans  :      25200. kBytes
   grid      :      44760. kBytes
   one-center:        245. kBytes
   wavefun   :     425916. kBytes

  
  
 General timing and accounting informations for this job:
 ========================================================
  
                  Total CPU time used (sec):      946.603
                            User time (sec):      943.698
                          System time (sec):        2.905
                         Elapsed time (sec):     1043.318
  
                   Maximum memory used (kb):      716176.
                   Average memory used (kb):          N/A
  
                          Minor page faults:       324248
                          Major page faults:            1
                 Voluntary context switches:         1220
