 vasp.6.3.0 20Jan22 (build Jul  1 2024 12:21:46) complex                         
 executed on             LinuxGNU date 2024.10.21  12:39:17
 running    1 mpi-ranks, with    1 threads/rank
 distrk:  each k-point on    1 cores,    1 groups
 distr:  one band on NCORE=   1 cores,    1 groups


--------------------------------------------------------------------------------------------------------


 INCAR:
   SYSTEM = Alumina_orthorombic_cell_under_strain
   ISTART = 0
   ICHARG = 2
   ENCUT = 400
   ALGO = Normal
   PREC = Normal
   ISPIN = 1
   LWAVE = T             (Write WAVECAR)
   LCHARG = T             (Write CHGCAR)
   NPAR = 1
   EDIFF = 1E-6
   NSW = 0
   NELM = 100
   POTIM = 0.5
   IBRION = -1
   ISMEAR = 1
   SIGMA = 0.026
   EDIFFG = -0.001
   ISIF = 2
   LREAL = Auto

 POTCAR:    PAW_PBE Al 04Jan2001                  
 POTCAR:    PAW_PBE O 08Apr2002                   
 POTCAR:    PAW_PBE Al 04Jan2001                  
   SHA256 =  17880443556af62b473fe41b62a467bd001ad55d2cabe504a3f22e34d4e9db96 Al/POTCAR             
   COPYR  = (c) Copyright 04Jan2001 Georg Kresse                                                    
   COPYR  = This file is part of the software VASP. Any use, copying, and all other rights are regul
   COPYR  = If you do not have a valid VASP license, you may not use, copy or distribute this file. 
   VRHFIN =Al: s2p1                                                                                 
   LEXCH  = PE                                                                                      
   EATOM  =    53.5387 eV,    3.9350 Ry                                                             
                                                                                                    
   TITEL  = PAW_PBE Al 04Jan2001                                                                    
   LULTRA =        F    use ultrasoft PP ?                                                          
   IUNSCR =        1    unscreen: 0-lin 1-nonlin 2-no                                               
   RPACOR =    1.500    partial core radius                                                         
   POMASS =   26.981; ZVAL   =    3.000    mass and valenz                                          
   RCORE  =    1.900    outmost cutoff radius                                                       
   RWIGS  =    2.650; RWIGS  =    1.402    wigner-seitz radius (au A)                               
   ENMAX  =  240.300; ENMIN  =  180.225 eV                                                          
   ICORE  =        2    local potential                                                             
   LCOR   =        T    correct aug charges                                                         
   LPAW   =        T    paw PP                                                                      
   EAUG   =  291.052                                                                                
   DEXC   =    0.000                                                                                
   RMAX   =    1.939    core radius for proj-oper                                                   
   RAUG   =    1.300    factor for augmentation sphere                                              
   RDEP   =    1.966    radius for radial grids                                                     
   RDEPT  =    1.856    core radius for aug-charge                                                  
                                                                                                    
   Atomic configuration                                                                             
    6 entries                                                                                       
     n  l   j            E        occ.                                                              
     1  0  0.50     -1511.1048   2.0000                                                             
     2  0  0.50      -108.1629   2.0000                                                             
     2  1  1.50       -69.6402   6.0000                                                             
     3  0  0.50        -7.7528   2.0000                                                             
     3  1  1.50        -2.7121   1.0000                                                             
     3  2  2.50        -2.7212   0.0000                                                             
   Description                                                                                      
     l       E           TYP  RCUT    TYP  RCUT                                                     
     0     -7.7528455     23  1.900                                                                 
     0     -3.3096929     23  1.900                                                                 
     1     -2.7120682     23  1.900                                                                 
     1     13.6058260     23  1.900                                                                 
     2     -2.7211652      7  1.900                                                                 
  local pseudopotential read in
  partial core-charges read in
  partial kinetic energy density read in
  atomic valenz-charges read in
  non local Contribution for L=           0  read in
    real space projection operators read in
  non local Contribution for L=           0  read in
    real space projection operators read in
  non local Contribution for L=           1  read in
    real space projection operators read in
  non local Contribution for L=           1  read in
    real space projection operators read in
    PAW grid and wavefunctions read in

   number of l-projection  operators is LMAX  =           4
   number of lm-projection operators is LMMAX =           8

 POTCAR:    PAW_PBE O 08Apr2002                   
   SHA256 =  818f92134a0a090dccd8ba1447fa70422a3b330e708bb4f08108d8ae51209ddf O/POTCAR              
   COPYR  = (c) Copyright 08Apr2002 Georg Kresse                                                    
   COPYR  = This file is part of the software VASP. Any use, copying, and all other rights are regul
   COPYR  = If you do not have a valid VASP license, you may not use, copy or distribute this file. 
   VRHFIN =O: s2p4                                                                                  
   LEXCH  = PE                                                                                      
   EATOM  =   432.3788 eV,   31.7789 Ry                                                             
                                                                                                    
   TITEL  = PAW_PBE O 08Apr2002                                                                     
   LULTRA =        F    use ultrasoft PP ?                                                          
   IUNSCR =        1    unscreen: 0-lin 1-nonlin 2-no                                               
   RPACOR =    1.200    partial core radius                                                         
   POMASS =   16.000; ZVAL   =    6.000    mass and valenz                                          
   RCORE  =    1.520    outmost cutoff radius                                                       
   RWIGS  =    1.550; RWIGS  =    0.820    wigner-seitz radius (au A)                               
   ENMAX  =  400.000; ENMIN  =  300.000 eV                                                          
   ICORE  =        2    local potential                                                             
   LCOR   =        T    correct aug charges                                                         
   LPAW   =        T    paw PP                                                                      
   EAUG   =  605.392                                                                                
   DEXC   =    0.000                                                                                
   RMAX   =    1.553    core radius for proj-oper                                                   
   RAUG   =    1.300    factor for augmentation sphere                                              
   RDEP   =    1.550    radius for radial grids                                                     
   RDEPT  =    1.329    core radius for aug-charge                                                  
                                                                                                    
   Atomic configuration                                                                             
    4 entries                                                                                       
     n  l   j            E        occ.                                                              
     1  0  0.50      -514.6923   2.0000                                                             
     2  0  0.50       -23.9615   2.0000                                                             
     2  1  0.50        -9.0305   4.0000                                                             
     3  2  1.50        -9.5241   0.0000                                                             
   Description                                                                                      
     l       E           TYP  RCUT    TYP  RCUT                                                     
     0    -23.9615318     23  1.200                                                                 
     0     -9.5240782     23  1.200                                                                 
     1     -9.0304911     23  1.520                                                                 
     1      8.1634956     23  1.520                                                                 
     2     -9.5240782      7  1.500                                                                 
  local pseudopotential read in
  partial core-charges read in
  partial kinetic energy density read in
  kinetic energy density of atom read in
  atomic valenz-charges read in
  non local Contribution for L=           0  read in
    real space projection operators read in
  non local Contribution for L=           0  read in
    real space projection operators read in
  non local Contribution for L=           1  read in
    real space projection operators read in
  non local Contribution for L=           1  read in
    real space projection operators read in
    PAW grid and wavefunctions read in

   number of l-projection  operators is LMAX  =           4
   number of lm-projection operators is LMMAX =           8

 Optimization of the real space projectors (new method)

 maximal supplied QI-value         = 19.84
 optimisation between [QCUT,QGAM] = [ 10.12, 20.44] = [ 28.68,116.96] Ry 
 Optimized for a Real-space Cutoff    1.23 Angstroem

   l    n(q)    QCUT    max X(q) W(low)/X(q) W(high)/X(q)  e(spline) 
   0      7    10.119   176.870    0.49E-04    0.18E-03    0.39E-07
   0      7    10.119   105.762    0.46E-04    0.18E-03    0.38E-07
   1      7    10.119    55.370    0.30E-03    0.37E-03    0.12E-06
   1      7    10.119    20.208    0.27E-03    0.35E-03    0.11E-06
 Optimization of the real space projectors (new method)

 maximal supplied QI-value         = 24.76
 optimisation between [QCUT,QGAM] = [ 10.15, 20.30] = [ 28.85,115.39] Ry 
 Optimized for a Real-space Cutoff    1.38 Angstroem

   l    n(q)    QCUT    max X(q) W(low)/X(q) W(high)/X(q)  e(spline) 
   0      8    10.150    20.381    0.22E-03    0.32E-03    0.29E-06
   0      8    10.150    15.268    0.23E-03    0.35E-03    0.30E-06
   1      8    10.150     5.964    0.46E-03    0.53E-03    0.21E-06
   1      8    10.150     5.382    0.38E-03    0.45E-03    0.19E-06
  PAW_PBE Al 04Jan2001                  :
 energy of atom  1       EATOM=  -53.5387
 kinetic energy error for atom=    0.0005 (will be added to EATOM!!)
  PAW_PBE O 08Apr2002                   :
 energy of atom  2       EATOM= -432.3788
 kinetic energy error for atom=    0.1156 (will be added to EATOM!!)


 POSCAR:    Al  O
  positions in direct lattice
  No initial velocities read in
 exchange correlation table for  LEXCH =        8
   RHO(1)=    0.500       N(1)  =     2000
   RHO(2)=  100.500       N(2)  =     4000



--------------------------------------------------------------------------------------------------------


 ion  position               nearest neighbor table
   1  0.126  0.016  0.390-  70 1.72  52 1.74  46 1.77  77 1.82  37 1.83  33 1.87   5 2.47  18 2.65
                            20 2.69  31 2.89  29 2.89  10 2.94   9 2.94   6 2.96  22 3.19  21 3.19
   2  0.126  0.516  0.390-  69 1.72  51 1.74  45 1.77  78 1.82  38 1.83  34 1.87   6 2.47  17 2.65
                            19 2.69  32 2.89  30 2.89   9 2.94  10 2.94   5 2.96  21 3.19  22 3.19
   3  0.626  0.016  0.390-  72 1.72  50 1.74  48 1.77  79 1.82  39 1.83  35 1.87   7 2.47  20 2.65
                            18 2.69  29 2.89  31 2.89  12 2.94  11 2.94   8 2.96  24 3.19  23 3.19
   4  0.626  0.516  0.390-  71 1.72  49 1.74  47 1.77  80 1.82  40 1.83  36 1.87   8 2.47  19 2.65
                            17 2.69  30 2.89  32 2.89  11 2.94  12 2.94   7 2.96  23 3.19  24 3.19
   5  0.126  0.234  0.610-  69 1.72  55 1.74  41 1.77  77 1.82  33 1.83  37 1.87   1 2.47  21 2.65
                            23 2.69  27 2.89  25 2.89  13 2.94  14 2.94   2 2.96  17 3.19  18 3.19
   6  0.126  0.734  0.610-  70 1.72  56 1.74  42 1.77  78 1.82  34 1.83  38 1.87   2 2.47  22 2.65
                            24 2.69  28 2.89  26 2.89  14 2.94  13 2.94   1 2.96  18 3.19  17 3.19
   7  0.626  0.234  0.610-  71 1.72  53 1.74  43 1.77  79 1.82  35 1.83  39 1.87   3 2.47  23 2.65
                            21 2.69  25 2.89  27 2.89  15 2.94  16 2.94   4 2.96  19 3.19  20 3.19
   8  0.626  0.734  0.610-  72 1.72  54 1.74  44 1.77  80 1.82  36 1.83  40 1.87   4 2.47  24 2.65
                            22 2.69  26 2.89  28 2.89  16 2.94  15 2.94   3 2.96  20 3.19  19 3.19
   9  0.124  0.266  0.110-  65 1.72  57 1.74  37 1.77  75 1.82  45 1.83  41 1.87  13 2.47  27 2.65
                            25 2.69  21 2.89  23 2.89   2 2.94   1 2.94  14 2.96  32 3.19  31 3.19
  10  0.124  0.766  0.110-  66 1.72  58 1.74  38 1.77  76 1.82  46 1.83  42 1.87  14 2.47  28 2.65
                            26 2.69  22 2.89  24 2.89   1 2.94   2 2.94  13 2.96  31 3.19  32 3.19
  11  0.624  0.266  0.110-  67 1.72  59 1.74  39 1.77  73 1.82  47 1.83  43 1.87  15 2.47  25 2.65
                            27 2.69  23 2.89  21 2.89   4 2.94   3 2.94  16 2.96  30 3.19  29 3.19
  12  0.624  0.766  0.110-  68 1.72  60 1.74  40 1.77  74 1.82  48 1.83  44 1.87  16 2.47  26 2.65
                            28 2.69  24 2.89  22 2.89   3 2.94   4 2.94  15 2.96  29 3.19  30 3.19
  13  0.124  0.484  0.890-  66 1.72  62 1.74  34 1.77  75 1.82  41 1.83  45 1.87   9 2.47  32 2.65
                            30 2.69  17 2.89  19 2.89   5 2.94   6 2.94  10 2.96  27 3.19  28 3.19
  14  0.124  0.984  0.890-  65 1.72  61 1.74  33 1.77  76 1.82  42 1.83  46 1.87  10 2.47  31 2.65
                            29 2.69  18 2.89  20 2.89   6 2.94   5 2.94   9 2.96  28 3.19  27 3.19
  15  0.624  0.484  0.890-  68 1.72  64 1.74  36 1.77  73 1.82  43 1.83  47 1.87  11 2.47  30 2.65
                            32 2.69  19 2.89  17 2.89   7 2.94   8 2.94  12 2.96  25 3.19  26 3.19
  16  0.624  0.984  0.890-  67 1.72  63 1.74  35 1.77  74 1.82  44 1.83  48 1.87  12 2.47  29 2.65
                            31 2.69  20 2.89  18 2.89   8 2.94   7 2.94  11 2.96  26 3.19  25 3.19
  17  0.374  0.484  0.610-  78 1.72  36 1.74  62 1.77  69 1.82  53 1.83  49 1.87  21 2.47   2 2.65
                             4 2.69  13 2.89  15 2.89  25 2.94  26 2.94  22 2.96   5 3.19   6 3.19
  18  0.374  0.984  0.610-  77 1.72  35 1.74  61 1.77  70 1.82  54 1.83  50 1.87  22 2.47   1 2.65
                             3 2.69  14 2.89  16 2.89  26 2.94  25 2.94  21 2.96   6 3.19   5 3.19
  19  0.874  0.484  0.610-  80 1.72  34 1.74  64 1.77  71 1.82  55 1.83  51 1.87  23 2.47   4 2.65
                             2 2.69  15 2.89  13 2.89  27 2.94  28 2.94  24 2.96   7 3.19   8 3.19
  20  0.874  0.984  0.610-  79 1.72  33 1.74  63 1.77  72 1.82  56 1.83  52 1.87  24 2.47   3 2.65
                             1 2.69  16 2.89  14 2.89  28 2.94  27 2.94  23 2.96   8 3.19   7 3.19
  21  0.374  0.266  0.390-  77 1.72  39 1.74  57 1.77  69 1.82  49 1.83  53 1.87  17 2.47   5 2.65
                             7 2.69   9 2.89  11 2.89  30 2.94  29 2.94  18 2.96   2 3.19   1 3.19
  22  0.374  0.766  0.390-  78 1.72  40 1.74  58 1.77  70 1.82  50 1.83  54 1.87  18 2.47   6 2.65
                             8 2.69  10 2.89  12 2.89  29 2.94  30 2.94  17 2.96   1 3.19   2 3.19
  23  0.874  0.266  0.390-  79 1.72  37 1.74  59 1.77  71 1.82  51 1.83  55 1.87  19 2.47   7 2.65
                             5 2.69  11 2.89   9 2.89  32 2.94  31 2.94  20 2.96   4 3.19   3 3.19
  24  0.874  0.766  0.390-  80 1.72  38 1.74  60 1.77  72 1.82  52 1.83  56 1.87  20 2.47   8 2.65
                             6 2.69  12 2.89  10 2.89  31 2.94  32 2.94  19 2.96   3 3.19   4 3.19
  25  0.376  0.234  0.890-  73 1.72  41 1.74  53 1.77  67 1.82  61 1.83  57 1.87  29 2.47  11 2.65
                             9 2.69   7 2.89   5 2.89  17 2.94  18 2.94  30 2.96  15 3.19  16 3.19
  26  0.376  0.734  0.890-  74 1.72  42 1.74  54 1.77  68 1.82  62 1.83  58 1.87  30 2.47  12 2.65
                            10 2.69   8 2.89   6 2.89  18 2.94  17 2.94  29 2.96  16 3.19  15 3.19
  27  0.876  0.234  0.890-  75 1.72  43 1.74  55 1.77  65 1.82  63 1.83  59 1.87  31 2.47   9 2.65
                            11 2.69   5 2.89   7 2.89  19 2.94  20 2.94  32 2.96  13 3.19  14 3.19
  28  0.876  0.734  0.890-  76 1.72  44 1.74  56 1.77  66 1.82  64 1.83  60 1.87  32 2.47  10 2.65
                            12 2.69   6 2.89   8 2.89  20 2.94  19 2.94  31 2.96  14 3.19  13 3.19
  29  0.376  0.016  0.110-  74 1.72  46 1.74  50 1.77  67 1.82  57 1.83  61 1.87  25 2.47  16 2.65
                            14 2.69   3 2.89   1 2.89  22 2.94  21 2.94  26 2.96  12 3.19  11 3.19
  30  0.376  0.516  0.110-  73 1.72  45 1.74  49 1.77  68 1.82  58 1.83  62 1.87  26 2.47  15 2.65
                            13 2.69   4 2.89   2 2.89  22 2.94  21 2.94  25 2.96  11 3.19  12 3.19
  31  0.876  0.016  0.110-  76 1.72  48 1.74  52 1.77  65 1.82  59 1.83  63 1.87  27 2.47  14 2.65
                            16 2.69   1 2.89   3 2.89  24 2.94  23 2.94  28 2.96  10 3.19   9 3.19
  32  0.876  0.516  0.110-  75 1.72  47 1.74  51 1.77  66 1.82  60 1.83  64 1.87  28 2.47  13 2.65
                            15 2.69   2 2.89   4 2.89  24 2.94  23 2.94  27 2.96   9 3.19  10 3.19
  33  0.054  0.051  0.654-  20 1.74  14 1.77   5 1.83   1 1.87
  34  0.054  0.551  0.654-  19 1.74  13 1.77   6 1.83   2 1.87
  35  0.554  0.051  0.654-  18 1.74  16 1.77   7 1.83   3 1.87
  36  0.554  0.551  0.654-  17 1.74  15 1.77   8 1.83   4 1.87
  37  0.054  0.199  0.346-  23 1.74   9 1.77   1 1.83   5 1.87
  38  0.054  0.699  0.346-  24 1.74  10 1.77   2 1.83   6 1.87
  39  0.554  0.199  0.346-  21 1.74  11 1.77   3 1.83   7 1.87
  40  0.554  0.699  0.346-  22 1.74  12 1.77   4 1.83   8 1.87
  41  0.196  0.301  0.846-  25 1.74   5 1.77  13 1.83   9 1.87
  42  0.196  0.801  0.846-  26 1.74   6 1.77  14 1.83  10 1.87
  43  0.696  0.301  0.846-  27 1.74   7 1.77  15 1.83  11 1.87
  44  0.696  0.801  0.846-  28 1.74   8 1.77  16 1.83  12 1.87
  45  0.196  0.449  0.154-  30 1.74   2 1.77   9 1.83  13 1.87
  46  0.196  0.949  0.154-  29 1.74   1 1.77  10 1.83  14 1.87
  47  0.696  0.449  0.154-  32 1.74   4 1.77  11 1.83  15 1.87
  48  0.696  0.949  0.154-  31 1.74   3 1.77  12 1.83  16 1.87
  49  0.446  0.449  0.346-   4 1.74  30 1.77  21 1.83  17 1.87
  50  0.446  0.949  0.346-   3 1.74  29 1.77  22 1.83  18 1.87
  51  0.946  0.449  0.346-   2 1.74  32 1.77  23 1.83  19 1.87
  52  0.946  0.949  0.346-   1 1.74  31 1.77  24 1.83  20 1.87
  53  0.446  0.301  0.654-   7 1.74  25 1.77  17 1.83  21 1.87
  54  0.446  0.801  0.654-   8 1.74  26 1.77  18 1.83  22 1.87
  55  0.946  0.301  0.654-   5 1.74  27 1.77  19 1.83  23 1.87
  56  0.946  0.801  0.654-   6 1.74  28 1.77  20 1.83  24 1.87
  57  0.304  0.199  0.154-   9 1.74  21 1.77  29 1.83  25 1.87
  58  0.304  0.699  0.154-  10 1.74  22 1.77  30 1.83  26 1.87
  59  0.804  0.199  0.154-  11 1.74  23 1.77  31 1.83  27 1.87
  60  0.804  0.699  0.154-  12 1.74  24 1.77  32 1.83  28 1.87
  61  0.304  0.051  0.846-  14 1.74  18 1.77  25 1.83  29 1.87
  62  0.304  0.551  0.846-  13 1.74  17 1.77  26 1.83  30 1.87
  63  0.804  0.051  0.846-  16 1.74  20 1.77  27 1.83  31 1.87
  64  0.804  0.551  0.846-  15 1.74  19 1.77  28 1.83  32 1.87
  65  0.025  0.125  0.000-  14 1.72   9 1.72  27 1.82  31 1.82
  66  0.025  0.625  0.000-  13 1.72  10 1.72  28 1.82  32 1.82
  67  0.525  0.125  0.000-  16 1.72  11 1.72  25 1.82  29 1.82
  68  0.525  0.625  0.000-  15 1.72  12 1.72  26 1.82  30 1.82
  69  0.225  0.375  0.500-   5 1.72   2 1.72  17 1.82  21 1.82
  70  0.225  0.875  0.500-   6 1.72   1 1.72  18 1.82  22 1.82
  71  0.725  0.375  0.500-   7 1.72   4 1.72  19 1.82  23 1.82
  72  0.725  0.875  0.500-   8 1.72   3 1.72  20 1.82  24 1.82
  73  0.475  0.375  0.000-  25 1.72  30 1.72  15 1.82  11 1.82
  74  0.475  0.875  0.000-  29 1.72  26 1.72  16 1.82  12 1.82
  75  0.975  0.375  0.000-  27 1.72  32 1.72  13 1.82   9 1.82
  76  0.975  0.875  0.000-  31 1.72  28 1.72  14 1.82  10 1.82
  77  0.275  0.125  0.500-  18 1.72  21 1.72   5 1.82   1 1.82
  78  0.275  0.625  0.500-  17 1.72  22 1.72   6 1.82   2 1.82
  79  0.775  0.125  0.500-  20 1.72  23 1.72   7 1.82   3 1.82
  80  0.775  0.625  0.500-  19 1.72  24 1.72   8 1.82   4 1.82

  LATTYP: Found a simple orthorhombic cell.
 ALAT       =     6.5313708158
 B/A-ratio  =     1.3681458986
 C/A-ratio  =     1.4070268484
  
  Lattice vectors:
  
 A1 = (   0.0000000000,   0.0000000000,   6.5313708158)
 A2 = (   8.9358681938,   0.0000000000,   0.0000000000)
 A3 = (   0.0000000000,   9.1898140949,   0.0000000000)


Analysis of symmetry for initial positions (statically):
=====================================================================
 Subroutine PRICEL returns following result:
 
  LATTYP: Found a simple orthorhombic cell.
 ALAT       =     4.4679340971
 B/A-ratio  =     1.0284187391
 C/A-ratio  =     1.4618323981
  
  Lattice vectors:
  
 A1 = (   4.4679340971,   0.0000000000,   0.0000000000)
 A2 = (   0.0000000000,   4.5949071504,   0.0000000000)
 A3 = (   0.0000000000,   0.0000000000,   6.5313708158)
 
   4 primitive cells build up your supercell.
 

 Routine SETGRP: Setting up the symmetry group for a 
 simple orthorhombic supercell.


 Subroutine GETGRP returns: Found  8 space group operations
 (whereof  2 operations were pure point group operations)
 out of a pool of  8 trial point group operations.


The static configuration has the point symmetry S_2 .
 The point group associated with its full space group is D_2h.


Analysis of symmetry for dynamics (positions and initial velocities):
=====================================================================
 Subroutine PRICEL returns following result:
 
  LATTYP: Found a simple orthorhombic cell.
 ALAT       =     4.4679340971
 B/A-ratio  =     1.0284187391
 C/A-ratio  =     1.4618323981
  
  Lattice vectors:
  
 A1 = (   4.4679340971,   0.0000000000,   0.0000000000)
 A2 = (   0.0000000000,   4.5949071504,   0.0000000000)
 A3 = (   0.0000000000,   0.0000000000,   6.5313708158)
 
   4 primitive cells build up your supercell.
 

 Routine SETGRP: Setting up the symmetry group for a 
 simple orthorhombic supercell.


 Subroutine GETGRP returns: Found  8 space group operations
 (whereof  2 operations were pure point group operations)
 out of a pool of  8 trial point group operations.


The dynamic configuration has the point symmetry S_2 .
 The point group associated with its full space group is D_2h.


Analysis of constrained symmetry for selective dynamics:
=====================================================================
 Subroutine PRICEL returns following result:
 
  LATTYP: Found a simple orthorhombic cell.
 ALAT       =     4.4679340971
 B/A-ratio  =     1.0284187391
 C/A-ratio  =     1.4618323981
  
  Lattice vectors:
  
 A1 = (   4.4679340971,   0.0000000000,   0.0000000000)
 A2 = (   0.0000000000,   4.5949071504,   0.0000000000)
 A3 = (   0.0000000000,   0.0000000000,   6.5313708158)
 
   4 primitive cells build up your supercell.
 

 Routine SETGRP: Setting up the symmetry group for a 
 simple orthorhombic supercell.


 Subroutine GETGRP returns: Found  8 space group operations
 (whereof  2 operations were pure point group operations)
 out of a pool of  8 trial point group operations.


The constrained configuration has the point symmetry S_2 .
 The point group associated with its full space group is D_2h.


 Subroutine INISYM returns: Found  8 space group operations
 (whereof  2 operations are pure point group operations),
 and found     4 'primitive' translations


----------------------------------------------------------------------------------------

                                     Primitive cell                                     

  volume of cell :     134.0874

  direct lattice vectors                    reciprocal lattice vectors
     4.467934097  0.000000000  0.000000000     0.223817088  0.000000000  0.000000000
     0.000000000  4.594907150  0.000000000     0.000000000  0.217632254  0.000000000
     0.000000000  0.000000000  6.531370816     0.000000000  0.000000000  0.153107216

  length of vectors
     4.467934097  4.594907150  6.531370816     0.223817088  0.217632254  0.153107216

  position of ions in fractional coordinates (direct lattice)
     0.252301010  0.031394432  0.389988368
     0.252301010  0.468605564  0.610011602
     0.247698990  0.531394421  0.110011610
     0.247698990  0.968605501  0.889988398
     0.747698961  0.968605501  0.610011602
     0.747698961  0.531394421  0.389988368
     0.752301039  0.468605564  0.889988398
     0.752301039  0.031394432  0.110011610
     0.107072531  0.102390997  0.654148561
     0.107072531  0.397608992  0.345851469
     0.392927454  0.602391023  0.845851439
     0.392927454  0.897608899  0.154148517
     0.892927514  0.897608899  0.345851469
     0.892927514  0.602391023  0.654148561
     0.607072486  0.397608992  0.154148517
     0.607072486  0.102390997  0.845851439
     0.050188047  0.249999994  0.000000000
     0.449811960  0.749999961  0.500000000
     0.949811900  0.749999961  0.000000000
     0.550188099  0.249999994  0.500000000

  ion indices of the primitive-cell ions
   primitive index   ion index
                 1           1
                 2           5
                 3          10
                 4          14
                 5          18
                 6          22
                 7          27
                 8          31
                 9          33
                10          37
                11          42
                12          46
                13          52
                14          56
                15          57
                16          61
                17          65
                18          70
                19          76
                20          77

----------------------------------------------------------------------------------------



 KPOINTS: k-points                                

Automatic generation of k-mesh.
 Grid dimensions read from file:
 generate k-points for:    4    4    4

 Generating k-lattice:

  Cartesian coordinates                     Fractional coordinates (reciprocal lattice)
     0.027977136  0.000000000  0.000000000     0.250000000  0.000000000  0.000000000
     0.000000000  0.027204032  0.000000000     0.000000000  0.250000000  0.000000000
     0.000000000  0.000000000  0.038276804     0.000000000  0.000000000  0.250000000

  Length of vectors
     0.027977136  0.027204032  0.038276804

  Shift w.r.t. Gamma in fractional coordinates (k-lattice)
     0.500000000  0.500000000  0.500000000

 
 Subroutine IBZKPT returns following result:
 ===========================================
 
 Found      8 irreducible k-points:
 
 Following reciprocal coordinates:
            Coordinates               Weight
  0.125000  0.125000  0.125000      8.000000
  0.375000  0.125000  0.125000      8.000000
  0.125000  0.375000  0.125000      8.000000
  0.375000  0.375000  0.125000      8.000000
  0.125000  0.125000  0.375000      8.000000
  0.375000  0.125000  0.375000      8.000000
  0.125000  0.375000  0.375000      8.000000
  0.375000  0.375000  0.375000      8.000000
 
 Following cartesian coordinates:
            Coordinates               Weight
  0.013989  0.013602  0.019138      8.000000
  0.041966  0.013602  0.019138      8.000000
  0.013989  0.040806  0.019138      8.000000
  0.041966  0.040806  0.019138      8.000000
  0.013989  0.013602  0.057415      8.000000
  0.041966  0.013602  0.057415      8.000000
  0.013989  0.040806  0.057415      8.000000
  0.041966  0.040806  0.057415      8.000000
 


--------------------------------------------------------------------------------------------------------




 Dimension of arrays:
   k-points           NKPTS =      8   k-points in BZ     NKDIM =      8   number of bands    NBANDS=    233
   number of dos      NEDOS =    301   number of ions     NIONS =     80
   non local maximal  LDIM  =      4   non local SUM 2l+1 LMDIM =      8
   total plane-waves  NPLWV =  73728
   max r-space proj   IRMAX =   1565   max aug-charges    IRDMAX=   5549
   dimension x,y,z NGX =    48 NGY =   48 NGZ =   32
   dimension x,y,z NGXF=    96 NGYF=   96 NGZF=   64
   support grid    NGXF=    96 NGYF=   96 NGZF=   64
   ions per type =              32  48
   NGX,Y,Z   is equivalent  to a cutoff of   8.93,  8.68,  8.15 a.u.
   NGXF,Y,Z  is equivalent  to a cutoff of  17.86, 17.37, 16.29 a.u.

 SYSTEM =  Alumina_orthorombic_cell_under_strain   
 POSCAR =     Al  O                                

 Startparameter for this run:
   NWRITE =      2    write-flag & timer
   PREC   = normal    normal or accurate (medium, high low for compatibility)
   ISTART =      0    job   : 0-new  1-cont  2-samecut
   ICHARG =      2    charge: 1-file 2-atom 10-const
   ISPIN  =      1    spin polarized calculation?
   LNONCOLLINEAR =      F non collinear calculations
   LSORBIT =      F    spin-orbit coupling
   INIWAV =      1    electr: 0-lowe 1-rand  2-diag
   LASPH  =      F    aspherical Exc in radial PAW
 Electronic Relaxation 1
   ENCUT  =  400.0 eV  29.40 Ry    5.42 a.u.  14.57 14.99 10.65*2*pi/ulx,y,z
   ENINI  =  400.0     initial cutoff
   ENAUG  =  605.4 eV  augmentation charge cutoff
   NELM   =    100;   NELMIN=  2; NELMDL= -5     # of ELM steps 
   EDIFF  = 0.1E-05   stopping-criterion for ELM
   LREAL  =      T    real-space projection
   NLSPLINE    = F    spline interpolate recip. space projectors
   LCOMPAT=      F    compatible to vasp.4.4
   GGA_COMPAT  = T    GGA compatible to vasp.4.4-vasp.4.6
   LMAXPAW     = -100 max onsite density
   LMAXMIX     =    2 max onsite mixed and CHGCAR
   VOSKOWN=      0    Vosko Wilk Nusair interpolation
   ROPT   =   -0.00050  -0.00050
 Ionic relaxation
   EDIFFG = -.1E-02   stopping-criterion for IOM
   NSW    =      0    number of steps for IOM
   NBLOCK =      1;   KBLOCK =      1    inner block; outer block 
   IBRION =     -1    ionic relax: 0-MD 1-quasi-New 2-CG
   NFREE  =      0    steps in history (QN), initial steepest desc. (CG)
   ISIF   =      2    stress and relaxation
   IWAVPR =     10    prediction:  0-non 1-charg 2-wave 3-comb
   ISYM   =      2    0-nonsym 1-usesym 2-fastsym
   LCORR  =      T    Harris-Foulkes like correction to forces

   POTIM  = 0.5000    time-step for ionic-motion
   TEIN   =    0.0    initial temperature
   TEBEG  =    0.0;   TEEND  =   0.0 temperature during run
   SMASS  =  -3.00    Nose mass-parameter (am)
   estimated Nose-frequenzy (Omega)   =  0.10E-29 period in steps = 0.13E+47 mass=  -0.182E-26a.u.
   SCALEE = 1.0000    scale energy and forces
   NPACO  =    256;   APACO  = 10.0  distance and # of slots for P.C.
   PSTRESS=    0.0 pullay stress

  Mass of Ions in am
   POMASS =  26.98 16.00
  Ionic Valenz
   ZVAL   =   3.00  6.00
  Atomic Wigner-Seitz radii
   RWIGS  =  -1.00 -1.00
  virtual crystal weights 
   VCA    =   1.00  1.00
   NELECT =     384.0000    total number of electrons
   NUPDOWN=      -1.0000    fix difference up-down

 DOS related values:
   EMIN   =  10.00;   EMAX   =-10.00  energy-range for DOS
   EFERMI =   0.00
   ISMEAR =     1;   SIGMA  =   0.03  broadening in eV -4-tet -1-fermi 0-gaus

 Electronic relaxation 2 (details)
   IALGO  =     38    algorithm
   LDIAG  =      T    sub-space diagonalisation (order eigenvalues)
   LSUBROT=      F    optimize rotation matrix (better conditioning)
   TURBO    =      0    0=normal 1=particle mesh
   IRESTART =      0    0=no restart 2=restart with 2 vectors
   NREBOOT  =      0    no. of reboots
   NMIN     =      0    reboot dimension
   EREF     =   0.00    reference energy to select bands
   IMIX   =      4    mixing-type and parameters
     AMIX     =   0.40;   BMIX     =  1.00
     AMIX_MAG =   1.60;   BMIX_MAG =  1.00
     AMIN     =   0.10
     WC   =   100.;   INIMIX=   1;  MIXPRE=   1;  MAXMIX= -45

 Intra band minimization:
   WEIMIN = 0.0000     energy-eigenvalue tresh-hold
   EBREAK =  0.11E-08  absolut break condition
   DEPER  =   0.30     relativ break condition  

   TIME   =   0.40     timestep for ELM

  volume/ion in A,a.u.               =       6.70        45.24
  Fermi-wavevector in a.u.,A,eV,Ry     =   1.464545  2.767588 29.183016  2.144891
  Thomas-Fermi vector in A             =   2.580508

 Write flags
   LWAVE        =      T    write WAVECAR
   LDOWNSAMPLE  =      F    k-point downsampling of WAVECAR
   LCHARG       =      T    write CHGCAR
   LVTOT        =      F    write LOCPOT, total local potential
   LVHAR        =      F    write LOCPOT, Hartree potential only
   LELF         =      F    write electronic localiz. function (ELF)
   LORBIT       =      0    0 simple, 1 ext, 2 COOP (PROOUT), +10 PAW based schemes


 Dipole corrections
   LMONO  =      F    monopole corrections only (constant potential shift)
   LDIPOL =      F    correct potential (dipole corrections)
   IDIPOL =      0    1-x, 2-y, 3-z, 4-all directions 
   EPSILON=  1.0000000 bulk dielectric constant

 Exchange correlation treatment:
   GGA     =    --    GGA type
   LEXCH   =     8    internal setting for exchange type
   LIBXC   =     F    Libxc                    
   VOSKOWN =     0    Vosko Wilk Nusair interpolation
   LHFCALC =     F    Hartree Fock is set to
   LHFONE  =     F    Hartree Fock one center treatment
   AEXX    =    0.0000 exact exchange contribution

 Linear response parameters
   LEPSILON=     F    determine dielectric tensor
   LRPA    =     F    only Hartree local field effects (RPA)
   LNABLA  =     F    use nabla operator in PAW spheres
   LVEL    =     F    velocity operator in full k-point grid
   CSHIFT  =0.1000    complex shift for real part using Kramers Kronig
   OMEGAMAX=  -1.0    maximum frequency
   DEG_THRESHOLD= 0.2000000E-02 threshold for treating states as degnerate
   RTIME   =   -0.100 relaxation time in fs
  (WPLASMAI=    0.000 imaginary part of plasma frequency in eV, 0.658/RTIME)
   DFIELD  = 0.0000000 0.0000000 0.0000000 field for delta impulse in time

  Optional k-point grid parameters
   LKPOINTS_OPT  =     F    use optional k-point grid
   KPOINTS_OPT_MODE=     1    mode for optional k-point grid

 Orbital magnetization related:
   ORBITALMAG=     F  switch on orbital magnetization
   LCHIMAG   =     F  perturbation theory with respect to B field
   DQ        =  0.001000  dq finite difference perturbation B field
   LLRAUG    =     F  two centre corrections for induced B field



--------------------------------------------------------------------------------------------------------


 Static calculation
 charge density and potential will be updated during run
 non-spin polarized calculation
 Variant of blocked Davidson
 Davidson routine will perform the subspace rotation
 perform sub-space diagonalisation
    after iterative eigenvector-optimisation
 modified Broyden-mixing scheme, WC =      100.0
 initial mixing is a Kerker type mixing with AMIX =  0.4000 and BMIX =      1.0000
 Hartree-type preconditioning will be used
 using additional bands           41
 real space projection scheme for non local part
 use partial core corrections
 calculate Harris-corrections to forces   (improved forces if not selfconsistent)
 use gradient corrections 
 use of overlap-Matrix (Vanderbilt PP)
 Methfessel and Paxton  Order N= 1 SIGMA  =   0.03


--------------------------------------------------------------------------------------------------------


  energy-cutoff  :      400.00
  volume of cell :      536.35
      direct lattice vectors                 reciprocal lattice vectors
     8.935868194  0.000000000  0.000000000     0.111908544  0.000000000  0.000000000
     0.000000000  9.189814095  0.000000000     0.000000000  0.108816129  0.000000000
     0.000000000  0.000000000  6.531370816     0.000000000  0.000000000  0.153107216

  length of vectors
     8.935868194  9.189814095  6.531370816     0.111908544  0.108816129  0.153107216



 k-points in units of 2pi/SCALE and weight: k-points                                
   0.01398857  0.01360202  0.01913840       0.125
   0.04196570  0.01360202  0.01913840       0.125
   0.01398857  0.04080605  0.01913840       0.125
   0.04196570  0.04080605  0.01913840       0.125
   0.01398857  0.01360202  0.05741521       0.125
   0.04196570  0.01360202  0.05741521       0.125
   0.01398857  0.04080605  0.05741521       0.125
   0.04196570  0.04080605  0.05741521       0.125

 k-points in reciprocal lattice and weights: k-points                                
   0.12500000  0.12500000  0.12500000       0.125
   0.37500000  0.12500000  0.12500000       0.125
   0.12500000  0.37500000  0.12500000       0.125
   0.37500000  0.37500000  0.12500000       0.125
   0.12500000  0.12500000  0.37500000       0.125
   0.37500000  0.12500000  0.37500000       0.125
   0.12500000  0.37500000  0.37500000       0.125
   0.37500000  0.37500000  0.37500000       0.125

 position of ions in fractional coordinates (direct lattice) 
   0.12615050  0.01569722  0.38998837
   0.12615050  0.51569723  0.38998837
   0.62615052  0.01569722  0.38998837
   0.62615052  0.51569723  0.38998837
   0.12615050  0.23430279  0.61001160
   0.12615050  0.73430277  0.61001160
   0.62615052  0.23430279  0.61001160
   0.62615052  0.73430277  0.61001160
   0.12384950  0.26569723  0.11001161
   0.12384950  0.76569723  0.11001161
   0.62384948  0.26569723  0.11001161
   0.62384948  0.76569723  0.11001161
   0.12384950  0.48430277  0.88998840
   0.12384950  0.98430277  0.88998840
   0.62384948  0.48430277  0.88998840
   0.62384948  0.98430277  0.88998840
   0.37384948  0.48430277  0.61001160
   0.37384948  0.98430277  0.61001160
   0.87384948  0.48430277  0.61001160
   0.87384948  0.98430277  0.61001160
   0.37384948  0.26569723  0.38998837
   0.37384948  0.76569723  0.38998837
   0.87384948  0.26569723  0.38998837
   0.87384948  0.76569723  0.38998837
   0.37615052  0.23430279  0.88998840
   0.37615052  0.73430277  0.88998840
   0.87615052  0.23430279  0.88998840
   0.87615052  0.73430277  0.88998840
   0.37615052  0.01569722  0.11001161
   0.37615052  0.51569723  0.11001161
   0.87615052  0.01569722  0.11001161
   0.87615052  0.51569723  0.11001161
   0.05353627  0.05119550  0.65414856
   0.05353627  0.55119553  0.65414856
   0.55353624  0.05119550  0.65414856
   0.55353624  0.55119553  0.65414856
   0.05353627  0.19880450  0.34585147
   0.05353627  0.69880447  0.34585147
   0.55353624  0.19880450  0.34585147
   0.55353624  0.69880447  0.34585147
   0.19646373  0.30119550  0.84585144
   0.19646373  0.80119553  0.84585144
   0.69646370  0.30119550  0.84585144
   0.69646370  0.80119553  0.84585144
   0.19646373  0.44880450  0.15414852
   0.19646373  0.94880447  0.15414852
   0.69646370  0.44880450  0.15414852
   0.69646370  0.94880447  0.15414852
   0.44646376  0.44880450  0.34585147
   0.44646376  0.94880447  0.34585147
   0.94646376  0.44880450  0.34585147
   0.94646376  0.94880447  0.34585147
   0.44646376  0.30119550  0.65414856
   0.44646376  0.80119553  0.65414856
   0.94646376  0.30119550  0.65414856
   0.94646376  0.80119553  0.65414856
   0.30353624  0.19880450  0.15414852
   0.30353624  0.69880447  0.15414852
   0.80353624  0.19880450  0.15414852
   0.80353624  0.69880447  0.15414852
   0.30353624  0.05119550  0.84585144
   0.30353624  0.55119553  0.84585144
   0.80353624  0.05119550  0.84585144
   0.80353624  0.55119553  0.84585144
   0.02509402  0.12500000  0.00000000
   0.02509402  0.62500000  0.00000000
   0.52509405  0.12500000  0.00000000
   0.52509405  0.62500000  0.00000000
   0.22490598  0.37500000  0.50000000
   0.22490598  0.87500000  0.50000000
   0.72490601  0.37500000  0.50000000
   0.72490601  0.87500000  0.50000000
   0.47490595  0.37500000  0.00000000
   0.47490595  0.87500000  0.00000000
   0.97490595  0.37500000  0.00000000
   0.97490595  0.87500000  0.00000000
   0.27509405  0.12500000  0.50000000
   0.27509405  0.62500000  0.50000000
   0.77509405  0.12500000  0.50000000
   0.77509405  0.62500000  0.50000000

 position of ions in cartesian coordinates  (Angst):
   1.12726428  0.14425450  2.54715865
   1.12726428  4.73916165  2.54715865
   5.59519851  0.14425450  2.54715865
   5.59519851  4.73916165  2.54715865
   1.12726428  2.15319906  3.98421198
   1.12726428  6.74810597  3.98421198
   5.59519851  2.15319906  3.98421198
   5.59519851  6.74810597  3.98421198
   1.10670277  2.44170813  0.71852662
   1.10670277  7.03661517  0.71852662
   5.57463673  2.44170813  0.71852662
   5.57463673  7.03661517  0.71852662
   1.10670277  4.45065244  5.81284425
   1.10670277  9.04555949  5.81284425
   5.57463673  4.45065244  5.81284425
   5.57463673  9.04555949  5.81284425
   3.34066968  4.45065244  3.98421198
   3.34066968  9.04555949  3.98421198
   7.80860378  4.45065244  3.98421198
   7.80860378  9.04555949  3.98421198
   3.34066968  2.44170813  2.54715865
   3.34066968  7.03661517  2.54715865
   7.80860378  2.44170813  2.54715865
   7.80860378  7.03661517  2.54715865
   3.36123147  2.15319906  5.81284425
   3.36123147  6.74810597  5.81284425
   7.82916556  2.15319906  5.81284425
   7.82916556  6.74810597  5.81284425
   3.36123147  0.14425450  0.71852662
   3.36123147  4.73916165  0.71852662
   7.82916556  0.14425450  0.71852662
   7.82916556  4.73916165  0.71852662
   0.47839301  0.47047712  4.27248682
   0.47839301  5.06538444  4.27248682
   4.94632691  0.47047712  4.27248682
   4.94632691  5.06538444  4.27248682
   0.47839301  1.82697640  2.25888419
   0.47839301  6.42188317  2.25888419
   4.94632691  1.82697640  2.25888419
   4.94632691  6.42188317  2.25888419
   1.75557397  2.76793065  5.52456940
   1.75557397  7.36283797  5.52456940
   6.22350780  2.76793065  5.52456940
   6.22350780  7.36283797  5.52456940
   1.75557397  4.12442992  1.00680112
   1.75557397  8.71933670  1.00680112
   6.22350780  4.12442992  1.00680112
   6.22350780  8.71933670  1.00680112
   3.98954129  4.12442992  2.25888419
   3.98954129  8.71933670  2.25888419
   8.45747538  4.12442992  2.25888419
   8.45747538  8.71933670  2.25888419
   3.98954129  2.76793065  4.27248682
   3.98954129  7.36283797  4.27248682
   8.45747538  2.76793065  4.27248682
   8.45747538  7.36283797  4.27248682
   2.71235986  1.82697640  1.00680112
   2.71235986  6.42188317  1.00680112
   7.18029396  1.82697640  1.00680112
   7.18029396  6.42188317  1.00680112
   2.71235986  0.47047712  5.52456940
   2.71235986  5.06538444  5.52456940
   7.18029396  0.47047712  5.52456940
   7.18029396  5.06538444  5.52456940
   0.22423689  1.14872676  0.00000000
   0.22423689  5.74363381  0.00000000
   4.69217122  1.14872676  0.00000000
   4.69217122  5.74363381  0.00000000
   2.00973019  3.44618029  3.26568541
   2.00973019  8.04108733  3.26568541
   6.47766456  3.44618029  3.26568541
   6.47766456  8.04108733  3.26568541
   4.24369698  3.44618029  0.00000000
   4.24369698  8.04108733  0.00000000
   8.71163107  3.44618029  0.00000000
   8.71163107  8.04108733  0.00000000
   2.45820417  1.14872676  3.26568541
   2.45820417  5.74363381  3.26568541
   6.92613827  1.14872676  3.26568541
   6.92613827  5.74363381  3.26568541



--------------------------------------------------------------------------------------------------------


 k-point   1 :   0.1250 0.1250 0.1250  plane waves:    9755
 k-point   2 :   0.3750 0.1250 0.1250  plane waves:    9757
 k-point   3 :   0.1250 0.3750 0.1250  plane waves:    9750
 k-point   4 :   0.3750 0.3750 0.1250  plane waves:    9751
 k-point   5 :   0.1250 0.1250 0.3750  plane waves:    9730
 k-point   6 :   0.3750 0.1250 0.3750  plane waves:    9735
 k-point   7 :   0.1250 0.3750 0.3750  plane waves:    9758
 k-point   8 :   0.3750 0.3750 0.3750  plane waves:    9731

 maximum and minimum number of plane-waves per node :      9758     9730

 maximum number of plane-waves:      9758
 maximum index in each direction: 
   IXMAX=   14   IYMAX=   14   IZMAX=   10
   IXMIN=  -14   IYMIN=  -15   IZMIN=  -11


 serial   3D FFT for wavefunctions
 parallel 3D FFT for charge:
    minimum data exchange during FFTs selected (reduces bandwidth)


 total amount of memory used by VASP MPI-rank0   407223. kBytes
=======================================================================

   base      :      30000. kBytes
   nonlr-proj:       9400. kBytes
   fftplans  :      20716. kBytes
   grid      :      36753. kBytes
   one-center:        245. kBytes
   wavefun   :     310109. kBytes

     INWAV:  cpu time      0.0001: real time      0.0002
 Broyden mixing: mesh for mixing (old mesh)
   NGX = 29   NGY = 29   NGZ = 21
  (NGX  = 96   NGY  = 96   NGZ  = 64)
  gives a total of  17661 points

 initial charge density was supplied:
 charge density of overlapping atoms calculated
 number of electron     384.0000000 magnetization 
 keeping initial charge density in first step


--------------------------------------------------------------------------------------------------------


 Maximum index for non-local projection operator         1477
 Maximum index for augmentation-charges         5188 (set IRDMAX)


--------------------------------------------------------------------------------------------------------


 First call to EWALD:  gamma=   0.218
 Maximum number of real-space cells 3x 2x 3
 Maximum number of reciprocal cells 3x 3x 2

    FEWALD:  cpu time      0.0726: real time      0.0728


--------------------------------------- Iteration      1(   1)  ---------------------------------------


    POTLOK:  cpu time      0.2641: real time      0.2655
    SETDIJ:  cpu time      0.0820: real time      0.0825
     EDDAV:  cpu time     40.6657: real time     41.1758
       DOS:  cpu time      0.0025: real time      0.0027
    --------------------------------------------
      LOOP:  cpu time     41.0143: real time     41.5265

 eigenvalue-minimisations  :  3728
 total energy-change (2. order) : 0.1939705E+04  (-0.1840651E+05)
 number of electron     384.0000000 magnetization 
 augmentation part      384.0000000 magnetization 

 Free energy of the ion-electron system (eV)
  ---------------------------------------------------
  alpha Z        PSCENC =       770.22624099
  Ewald energy   TEWEN  =    -20952.30364242
  -Hartree energ DENC   =     -4349.67394501
  -exchange      EXHF   =         0.00000000
  -V(xc)+E(xc)   XCENC  =       577.54932754
  PAW double counting   =     18752.77991877   -17816.57094691
  entropy T*S    EENTRO =        -0.00128946
  eigenvalues    EBANDS =      2495.84449232
  atomic energy  EATOM  =     22461.85434800
  Solvation  Ediel_sol  =         0.00000000
  ---------------------------------------------------
  free energy    TOTEN  =      1939.70450381 eV

  energy without entropy =     1939.70579327  energy(sigma->0) =     1939.70493363


--------------------------------------------------------------------------------------------------------




--------------------------------------- Iteration      1(   2)  ---------------------------------------


     EDDAV:  cpu time     46.2898: real time     46.7912
       DOS:  cpu time      0.0021: real time      0.0023
    --------------------------------------------
      LOOP:  cpu time     46.2919: real time     46.7935

 eigenvalue-minimisations  :  4320
 total energy-change (2. order) :-0.2462140E+04  (-0.2413396E+04)
 number of electron     384.0000000 magnetization 
 augmentation part      384.0000000 magnetization 

 Free energy of the ion-electron system (eV)
  ---------------------------------------------------
  alpha Z        PSCENC =       770.22624099
  Ewald energy   TEWEN  =    -20952.30364242
  -Hartree energ DENC   =     -4349.67394501
  -exchange      EXHF   =         0.00000000
  -V(xc)+E(xc)   XCENC  =       577.54932754
  PAW double counting   =     18752.77991877   -17816.57094691
  entropy T*S    EENTRO =         0.00018843
  eigenvalues    EBANDS =        33.70326539
  atomic energy  EATOM  =     22461.85434800
  Solvation  Ediel_sol  =         0.00000000
  ---------------------------------------------------
  free energy    TOTEN  =      -522.43524522 eV

  energy without entropy =     -522.43543366  energy(sigma->0) =     -522.43530803


--------------------------------------------------------------------------------------------------------




--------------------------------------- Iteration      1(   3)  ---------------------------------------


     EDDAV:  cpu time     47.0032: real time     47.5131
       DOS:  cpu time      0.0024: real time      0.0026
    --------------------------------------------
      LOOP:  cpu time     47.0056: real time     47.5157

 eigenvalue-minimisations  :  4384
 total energy-change (2. order) :-0.1063886E+03  (-0.1060470E+03)
 number of electron     384.0000000 magnetization 
 augmentation part      384.0000000 magnetization 

 Free energy of the ion-electron system (eV)
  ---------------------------------------------------
  alpha Z        PSCENC =       770.22624099
  Ewald energy   TEWEN  =    -20952.30364242
  -Hartree energ DENC   =     -4349.67394501
  -exchange      EXHF   =         0.00000000
  -V(xc)+E(xc)   XCENC  =       577.54932754
  PAW double counting   =     18752.77991877   -17816.57094691
  entropy T*S    EENTRO =         0.00071459
  eigenvalues    EBANDS =       -72.68589499
  atomic energy  EATOM  =     22461.85434800
  Solvation  Ediel_sol  =         0.00000000
  ---------------------------------------------------
  free energy    TOTEN  =      -628.82387945 eV

  energy without entropy =     -628.82459404  energy(sigma->0) =     -628.82411764


--------------------------------------------------------------------------------------------------------




--------------------------------------- Iteration      1(   4)  ---------------------------------------


     EDDAV:  cpu time     46.5132: real time     47.0578
       DOS:  cpu time      0.0024: real time      0.0026
    --------------------------------------------
      LOOP:  cpu time     46.5156: real time     47.0605

 eigenvalue-minimisations  :  4336
 total energy-change (2. order) :-0.9859652E+00  (-0.9839464E+00)
 number of electron     384.0000000 magnetization 
 augmentation part      384.0000000 magnetization 

 Free energy of the ion-electron system (eV)
  ---------------------------------------------------
  alpha Z        PSCENC =       770.22624099
  Ewald energy   TEWEN  =    -20952.30364242
  -Hartree energ DENC   =     -4349.67394501
  -exchange      EXHF   =         0.00000000
  -V(xc)+E(xc)   XCENC  =       577.54932754
  PAW double counting   =     18752.77991877   -17816.57094691
  entropy T*S    EENTRO =         0.00072692
  eigenvalues    EBANDS =       -73.67187253
  atomic energy  EATOM  =     22461.85434800
  Solvation  Ediel_sol  =         0.00000000
  ---------------------------------------------------
  free energy    TOTEN  =      -629.80984465 eV

  energy without entropy =     -629.81057157  energy(sigma->0) =     -629.81008696


--------------------------------------------------------------------------------------------------------




--------------------------------------- Iteration      1(   5)  ---------------------------------------


     EDDAV:  cpu time     46.4622: real time     47.0809
       DOS:  cpu time      0.0024: real time      0.0026
    CHARGE:  cpu time      1.3266: real time      1.3392
    MIXING:  cpu time      0.0112: real time      0.0113
    --------------------------------------------
      LOOP:  cpu time     47.8025: real time     48.4339

 eigenvalue-minimisations  :  4344
 total energy-change (2. order) :-0.1459755E-01  (-0.1458637E-01)
 number of electron     384.0000465 magnetization 
 augmentation part       39.0085066 magnetization 

 Broyden mixing:
  rms(total) = 0.55368E+01    rms(broyden)= 0.55348E+01
  rms(prec ) = 0.72057E+01
  weight for this iteration     100.00

 Free energy of the ion-electron system (eV)
  ---------------------------------------------------
  alpha Z        PSCENC =       770.22624099
  Ewald energy   TEWEN  =    -20952.30364242
  -Hartree energ DENC   =     -4349.67394501
  -exchange      EXHF   =         0.00000000
  -V(xc)+E(xc)   XCENC  =       577.54932754
  PAW double counting   =     18752.77991877   -17816.57094691
  entropy T*S    EENTRO =         0.00072717
  eigenvalues    EBANDS =       -73.68647032
  atomic energy  EATOM  =     22461.85434800
  Solvation  Ediel_sol  =         0.00000000
  ---------------------------------------------------
  free energy    TOTEN  =      -629.82444220 eV

  energy without entropy =     -629.82516937  energy(sigma->0) =     -629.82468459


--------------------------------------------------------------------------------------------------------




--------------------------------------- Iteration      1(   6)  ---------------------------------------


    POTLOK:  cpu time      0.3293: real time      0.3320
    SETDIJ:  cpu time      0.0815: real time      0.0820
     EDDAV:  cpu time     45.0934: real time     45.6335
       DOS:  cpu time      0.0022: real time      0.0025
    CHARGE:  cpu time      1.2237: real time      1.2355
    MIXING:  cpu time      0.0112: real time      0.0113
    --------------------------------------------
      LOOP:  cpu time     46.7414: real time     47.2968

 eigenvalue-minimisations  :  4192
 total energy-change (2. order) : 0.7265871E+02  (-0.2608728E+02)
 number of electron     384.0000401 magnetization 
 augmentation part       33.8757474 magnetization 

 Broyden mixing:
  rms(total) = 0.20160E+01    rms(broyden)= 0.20141E+01
  rms(prec ) = 0.22669E+01
  weight for this iteration     100.00

 eigenvalues of (default mixing * dielectric matrix)
  average eigenvalue GAMMA=   1.1011
  1.1011

 Free energy of the ion-electron system (eV)
  ---------------------------------------------------
  alpha Z        PSCENC =       770.22624099
  Ewald energy   TEWEN  =    -20952.30364242
  -Hartree energ DENC   =     -5079.87065520
  -exchange      EXHF   =         0.00000000
  -V(xc)+E(xc)   XCENC  =       631.07605948
  PAW double counting   =     26676.10209818   -25757.46437256
  entropy T*S    EENTRO =         0.00055209
  eigenvalues    EBANDS =       693.21364358
  atomic energy  EATOM  =     22461.85434800
  Solvation  Ediel_sol  =         0.00000000
  ---------------------------------------------------
  free energy    TOTEN  =      -557.16572787 eV

  energy without entropy =     -557.16627995  energy(sigma->0) =     -557.16591190


--------------------------------------------------------------------------------------------------------




--------------------------------------- Iteration      1(   7)  ---------------------------------------


    POTLOK:  cpu time      0.3237: real time      0.3265
    SETDIJ:  cpu time      0.0815: real time      0.0820
     EDDAV:  cpu time     46.7474: real time     47.4212
       DOS:  cpu time      0.0022: real time      0.0025
    CHARGE:  cpu time      1.2234: real time      1.2349
    MIXING:  cpu time      0.0112: real time      0.0113
    --------------------------------------------
      LOOP:  cpu time     48.3894: real time     49.0783

 eigenvalue-minimisations  :  4360
 total energy-change (2. order) : 0.1065444E+01  (-0.1166548E+01)
 number of electron     384.0000384 magnetization 
 augmentation part       33.0301908 magnetization 

 Broyden mixing:
  rms(total) = 0.10091E+01    rms(broyden)= 0.10086E+01
  rms(prec ) = 0.11190E+01
  weight for this iteration     100.00

 eigenvalues of (default mixing * dielectric matrix)
  average eigenvalue GAMMA=   1.3984
  1.3984  1.3984

 Free energy of the ion-electron system (eV)
  ---------------------------------------------------
  alpha Z        PSCENC =       770.22624099
  Ewald energy   TEWEN  =    -20952.30364242
  -Hartree energ DENC   =     -5219.47900770
  -exchange      EXHF   =         0.00000000
  -V(xc)+E(xc)   XCENC  =       642.59713212
  PAW double counting   =     34739.90739099   -33823.60155791
  entropy T*S    EENTRO =         0.00047550
  eigenvalues    EBANDS =       824.69833648
  atomic energy  EATOM  =     22461.85434800
  Solvation  Ediel_sol  =         0.00000000
  ---------------------------------------------------
  free energy    TOTEN  =      -556.10028394 eV

  energy without entropy =     -556.10075945  energy(sigma->0) =     -556.10044244


--------------------------------------------------------------------------------------------------------




--------------------------------------- Iteration      1(   8)  ---------------------------------------


    POTLOK:  cpu time      0.3188: real time      0.3216
    SETDIJ:  cpu time      0.0809: real time      0.0814
     EDDAV:  cpu time     46.0543: real time     46.6085
       DOS:  cpu time      0.0023: real time      0.0025
    CHARGE:  cpu time      1.2193: real time      1.2311
    MIXING:  cpu time      0.0117: real time      0.0118
    --------------------------------------------
      LOOP:  cpu time     47.6873: real time     48.2569

 eigenvalue-minimisations  :  4264
 total energy-change (2. order) :-0.1045967E-01  (-0.5966269E-01)
 number of electron     384.0000387 magnetization 
 augmentation part       33.1793463 magnetization 

 Broyden mixing:
  rms(total) = 0.28287E+00    rms(broyden)= 0.28285E+00
  rms(prec ) = 0.33704E+00
  weight for this iteration     100.00

 eigenvalues of (default mixing * dielectric matrix)
  average eigenvalue GAMMA=   1.6027
  2.5110  1.1486  1.1486

 Free energy of the ion-electron system (eV)
  ---------------------------------------------------
  alpha Z        PSCENC =       770.22624099
  Ewald energy   TEWEN  =    -20952.30364242
  -Hartree energ DENC   =     -5235.00342358
  -exchange      EXHF   =         0.00000000
  -V(xc)+E(xc)   XCENC  =       645.37570796
  PAW double counting   =     40789.32842783   -39873.20654356
  entropy T*S    EENTRO =         0.00049362
  eigenvalues    EBANDS =       837.61764754
  atomic energy  EATOM  =     22461.85434800
  Solvation  Ediel_sol  =         0.00000000
  ---------------------------------------------------
  free energy    TOTEN  =      -556.11074361 eV

  energy without entropy =     -556.11123723  energy(sigma->0) =     -556.11090815


--------------------------------------------------------------------------------------------------------




--------------------------------------- Iteration      1(   9)  ---------------------------------------


    POTLOK:  cpu time      0.3259: real time      0.3289
    SETDIJ:  cpu time      0.0809: real time      0.0814
     EDDAV:  cpu time     47.0093: real time     47.5512
       DOS:  cpu time      0.0023: real time      0.0026
    CHARGE:  cpu time      1.2206: real time      1.2323
    MIXING:  cpu time      0.0129: real time      0.0130
    --------------------------------------------
      LOOP:  cpu time     48.6521: real time     49.2094

 eigenvalue-minimisations  :  4368
 total energy-change (2. order) :-0.2372212E-01  (-0.2196594E-01)
 number of electron     384.0000386 magnetization 
 augmentation part       33.0576734 magnetization 

 Broyden mixing:
  rms(total) = 0.95316E-01    rms(broyden)= 0.95269E-01
  rms(prec ) = 0.98575E-01
  weight for this iteration     100.00

 eigenvalues of (default mixing * dielectric matrix)
  average eigenvalue GAMMA=   1.7829
  1.0713  1.0713  2.4945  2.4945

 Free energy of the ion-electron system (eV)
  ---------------------------------------------------
  alpha Z        PSCENC =       770.22624099
  Ewald energy   TEWEN  =    -20952.30364242
  -Hartree energ DENC   =     -5269.60859910
  -exchange      EXHF   =         0.00000000
  -V(xc)+E(xc)   XCENC  =       648.76070439
  PAW double counting   =     43299.52169675   -42384.13026811
  entropy T*S    EENTRO =         0.00048720
  eigenvalues    EBANDS =       869.54456658
  atomic energy  EATOM  =     22461.85434800
  Solvation  Ediel_sol  =         0.00000000
  ---------------------------------------------------
  free energy    TOTEN  =      -556.13446573 eV

  energy without entropy =     -556.13495293  energy(sigma->0) =     -556.13462813


--------------------------------------------------------------------------------------------------------




--------------------------------------- Iteration      1(  10)  ---------------------------------------


    POTLOK:  cpu time      0.3249: real time      0.3278
    SETDIJ:  cpu time      0.0810: real time      0.0814
     EDDAV:  cpu time     46.0567: real time     46.6196
       DOS:  cpu time      0.0024: real time      0.0026
    CHARGE:  cpu time      1.2207: real time      1.2321
    MIXING:  cpu time      0.0133: real time      0.0134
    --------------------------------------------
      LOOP:  cpu time     47.6989: real time     48.2769

 eigenvalue-minimisations  :  4256
 total energy-change (2. order) :-0.3422744E-02  (-0.2694495E-02)
 number of electron     384.0000385 magnetization 
 augmentation part       33.0837461 magnetization 

 Broyden mixing:
  rms(total) = 0.22531E-01    rms(broyden)= 0.22510E-01
  rms(prec ) = 0.28685E-01
  weight for this iteration     100.00

 eigenvalues of (default mixing * dielectric matrix)
  average eigenvalue GAMMA=   1.5751
  2.6162  2.2559  0.9672  0.9672  1.0692

 Free energy of the ion-electron system (eV)
  ---------------------------------------------------
  alpha Z        PSCENC =       770.22624099
  Ewald energy   TEWEN  =    -20952.30364242
  -Hartree energ DENC   =     -5266.95512597
  -exchange      EXHF   =         0.00000000
  -V(xc)+E(xc)   XCENC  =       648.63830030
  PAW double counting   =     42379.22474201   -41463.66672478
  entropy T*S    EENTRO =         0.00047490
  eigenvalues    EBANDS =       866.84349849
  atomic energy  EATOM  =     22461.85434800
  Solvation  Ediel_sol  =         0.00000000
  ---------------------------------------------------
  free energy    TOTEN  =      -556.13788847 eV

  energy without entropy =     -556.13836337  energy(sigma->0) =     -556.13804677


--------------------------------------------------------------------------------------------------------




--------------------------------------- Iteration      1(  11)  ---------------------------------------


    POTLOK:  cpu time      0.3223: real time      0.3252
    SETDIJ:  cpu time      0.0811: real time      0.0816
     EDDAV:  cpu time     46.6564: real time     47.2881
       DOS:  cpu time      0.0023: real time      0.0025
    CHARGE:  cpu time      1.3213: real time      1.3362
    MIXING:  cpu time      0.0140: real time      0.0142
    --------------------------------------------
      LOOP:  cpu time     48.3975: real time     49.0477

 eigenvalue-minimisations  :  4336
 total energy-change (2. order) : 0.8186411E-03  (-0.5303318E-03)
 number of electron     384.0000385 magnetization 
 augmentation part       33.0731125 magnetization 

 Broyden mixing:
  rms(total) = 0.19485E-01    rms(broyden)= 0.19481E-01
  rms(prec ) = 0.20993E-01
  weight for this iteration     100.00

 eigenvalues of (default mixing * dielectric matrix)
  average eigenvalue GAMMA=   1.6031
  2.8455  2.5091  1.0659  1.0659  1.0661  1.0661

 Free energy of the ion-electron system (eV)
  ---------------------------------------------------
  alpha Z        PSCENC =       770.22624099
  Ewald energy   TEWEN  =    -20952.30364242
  -Hartree energ DENC   =     -5268.49185008
  -exchange      EXHF   =         0.00000000
  -V(xc)+E(xc)   XCENC  =       648.76516145
  PAW double counting   =     42497.43446916   -41581.92525178
  entropy T*S    EENTRO =         0.00048142
  eigenvalues    EBANDS =       868.30297343
  atomic energy  EATOM  =     22461.85434800
  Solvation  Ediel_sol  =         0.00000000
  ---------------------------------------------------
  free energy    TOTEN  =      -556.13706983 eV

  energy without entropy =     -556.13755125  energy(sigma->0) =     -556.13723030


--------------------------------------------------------------------------------------------------------




--------------------------------------- Iteration      1(  12)  ---------------------------------------


    POTLOK:  cpu time      0.3328: real time      0.3399
    SETDIJ:  cpu time      0.0959: real time      0.0964
     EDDAV:  cpu time     45.8439: real time     46.4080
       DOS:  cpu time      0.0024: real time      0.0026
    CHARGE:  cpu time      1.3230: real time      1.3354
    MIXING:  cpu time      0.0145: real time      0.0146
    --------------------------------------------
      LOOP:  cpu time     47.6125: real time     48.1969

 eigenvalue-minimisations  :  4240
 total energy-change (2. order) :-0.4056987E-05  (-0.2375646E-03)
 number of electron     384.0000386 magnetization 
 augmentation part       33.0795472 magnetization 

 Broyden mixing:
  rms(total) = 0.29081E-02    rms(broyden)= 0.28820E-02
  rms(prec ) = 0.37318E-02
  weight for this iteration     100.00

 eigenvalues of (default mixing * dielectric matrix)
  average eigenvalue GAMMA=   1.5205
  2.7933  2.4598  1.2109  1.0554  1.0554  1.0344  1.0344

 Free energy of the ion-electron system (eV)
  ---------------------------------------------------
  alpha Z        PSCENC =       770.22624099
  Ewald energy   TEWEN  =    -20952.30364242
  -Hartree energ DENC   =     -5267.79616167
  -exchange      EXHF   =         0.00000000
  -V(xc)+E(xc)   XCENC  =       648.72058367
  PAW double counting   =     42333.41938737   -41417.88079159
  entropy T*S    EENTRO =         0.00048452
  eigenvalues    EBANDS =       867.62247725
  atomic energy  EATOM  =     22461.85434800
  Solvation  Ediel_sol  =         0.00000000
  ---------------------------------------------------
  free energy    TOTEN  =      -556.13707389 eV

  energy without entropy =     -556.13755841  energy(sigma->0) =     -556.13723539


--------------------------------------------------------------------------------------------------------




--------------------------------------- Iteration      1(  13)  ---------------------------------------


    POTLOK:  cpu time      0.3326: real time      0.3355
    SETDIJ:  cpu time      0.0814: real time      0.0819
     EDDAV:  cpu time     46.3219: real time     46.9102
       DOS:  cpu time      0.0022: real time      0.0025
    CHARGE:  cpu time      1.3185: real time      1.3455
    MIXING:  cpu time      0.0143: real time      0.0144
    --------------------------------------------
      LOOP:  cpu time     48.0709: real time     48.6900

 eigenvalue-minimisations  :  4304
 total energy-change (2. order) : 0.1234586E-04  (-0.1839239E-04)
 number of electron     384.0000386 magnetization 
 augmentation part       33.0777230 magnetization 

 Broyden mixing:
  rms(total) = 0.17419E-02    rms(broyden)= 0.17413E-02
  rms(prec ) = 0.19512E-02
  weight for this iteration     100.00

 eigenvalues of (default mixing * dielectric matrix)
  average eigenvalue GAMMA=   1.5154
  2.8052  2.4537  1.7839  1.0415  1.0415  1.0814  1.0814  0.8344

 Free energy of the ion-electron system (eV)
  ---------------------------------------------------
  alpha Z        PSCENC =       770.22624099
  Ewald energy   TEWEN  =    -20952.30364242
  -Hartree energ DENC   =     -5267.91971414
  -exchange      EXHF   =         0.00000000
  -V(xc)+E(xc)   XCENC  =       648.72783323
  PAW double counting   =     42342.41771740   -41426.88640127
  entropy T*S    EENTRO =         0.00048333
  eigenvalues    EBANDS =       867.74607333
  atomic energy  EATOM  =     22461.85434800
  Solvation  Ediel_sol  =         0.00000000
  ---------------------------------------------------
  free energy    TOTEN  =      -556.13706154 eV

  energy without entropy =     -556.13754487  energy(sigma->0) =     -556.13722265


--------------------------------------------------------------------------------------------------------




--------------------------------------- Iteration      1(  14)  ---------------------------------------


    POTLOK:  cpu time      0.3356: real time      0.3385
    SETDIJ:  cpu time      0.0815: real time      0.0820
     EDDAV:  cpu time     46.3000: real time     46.7940
       DOS:  cpu time      0.0023: real time      0.0026
    CHARGE:  cpu time      1.3184: real time      1.3306
    MIXING:  cpu time      0.0164: real time      0.0166
    --------------------------------------------
      LOOP:  cpu time     48.0543: real time     48.5643

 eigenvalue-minimisations  :  4312
 total energy-change (2. order) :-0.4374124E-06  (-0.3434484E-05)
 number of electron     384.0000386 magnetization 
 augmentation part       33.0785439 magnetization 

 Broyden mixing:
  rms(total) = 0.77953E-03    rms(broyden)= 0.77872E-03
  rms(prec ) = 0.82646E-03
  weight for this iteration     100.00

 eigenvalues of (default mixing * dielectric matrix)
  average eigenvalue GAMMA=   1.5190
  2.8360  2.4893  2.1756  1.0080  1.0080  1.1017  1.1017  0.9754  0.9754

 Free energy of the ion-electron system (eV)
  ---------------------------------------------------
  alpha Z        PSCENC =       770.22624099
  Ewald energy   TEWEN  =    -20952.30364242
  -Hartree energ DENC   =     -5267.82954927
  -exchange      EXHF   =         0.00000000
  -V(xc)+E(xc)   XCENC  =       648.71963649
  PAW double counting   =     42335.03965237   -41419.50633776
  entropy T*S    EENTRO =         0.00048315
  eigenvalues    EBANDS =       867.66210647
  atomic energy  EATOM  =     22461.85434800
  Solvation  Ediel_sol  =         0.00000000
  ---------------------------------------------------
  free energy    TOTEN  =      -556.13706198 eV

  energy without entropy =     -556.13754513  energy(sigma->0) =     -556.13722303


--------------------------------------------------------------------------------------------------------




--------------------------------------- Iteration      1(  15)  ---------------------------------------


    POTLOK:  cpu time      0.3313: real time      0.3343
    SETDIJ:  cpu time      0.0811: real time      0.0816
     EDDAV:  cpu time     30.8313: real time     31.2214
       DOS:  cpu time      0.0025: real time      0.0028
    --------------------------------------------
      LOOP:  cpu time     31.2463: real time     31.6401

 eigenvalue-minimisations  :  2496
 total energy-change (2. order) : 0.3405767E-06  (-0.1222627E-06)
 number of electron     384.0000386 magnetization 
 augmentation part       33.0785439 magnetization 

 Free energy of the ion-electron system (eV)
  ---------------------------------------------------
  alpha Z        PSCENC =       770.22624099
  Ewald energy   TEWEN  =    -20952.30364242
  -Hartree energ DENC   =     -5267.84708201
  -exchange      EXHF   =         0.00000000
  -V(xc)+E(xc)   XCENC  =       648.72008051
  PAW double counting   =     42331.33309736   -41415.80011863
  entropy T*S    EENTRO =         0.00048324
  eigenvalues    EBANDS =       867.67953131
  atomic energy  EATOM  =     22461.85434800
  Solvation  Ediel_sol  =         0.00000000
  ---------------------------------------------------
  free energy    TOTEN  =      -556.13706164 eV

  energy without entropy =     -556.13754488  energy(sigma->0) =     -556.13722272


--------------------------------------------------------------------------------------------------------




 average (electrostatic) potential at core
  the test charge radii are     1.0406  0.7215
  (the norm of the test charge is              1.0000)
       1 -67.6001       2 -67.6001       3 -67.6001       4 -67.6001       5 -67.6001
       6 -67.6001       7 -67.6001       8 -67.6001       9 -67.6001      10 -67.6001
      11 -67.6001      12 -67.6001      13 -67.6001      14 -67.6001      15 -67.6001
      16 -67.6001      17 -67.6001      18 -67.6001      19 -67.6001      20 -67.6001
      21 -67.6001      22 -67.6001      23 -67.6001      24 -67.6001      25 -67.6001
      26 -67.6001      27 -67.6001      28 -67.6001      29 -67.6001      30 -67.6001
      31 -67.6001      32 -67.6001      33 -64.1276      34 -64.1276      35 -64.1276
      36 -64.1276      37 -64.1276      38 -64.1276      39 -64.1276      40 -64.1276
      41 -64.1276      42 -64.1276      43 -64.1276      44 -64.1276      45 -64.1276
      46 -64.1276      47 -64.1276      48 -64.1276      49 -64.1276      50 -64.1276
      51 -64.1276      52 -64.1276      53 -64.1276      54 -64.1276      55 -64.1276
      56 -64.1276      57 -64.1276      58 -64.1276      59 -64.1276      60 -64.1276
      61 -64.1276      62 -64.1276      63 -64.1276      64 -64.1276      65 -63.9113
      66 -63.9114      67 -63.9114      68 -63.9114      69 -63.9113      70 -63.9114
      71 -63.9113      72 -63.9114      73 -63.9114      74 -63.9114      75 -63.9114
      76 -63.9114      77 -63.9113      78 -63.9114      79 -63.9113      80 -63.9114



 E-fermi :   9.4340     XC(G=0): -12.9842     alpha+bet :-21.3464

 Fermi energy:         9.4340404266

 k-point     1 :       0.1250    0.1250    0.1250
  band No.  band energies     occupation 
      1     -11.8223      2.00000
      2     -11.0120      2.00000
      3     -10.9719      2.00000
      4     -10.5198      2.00000
      5     -10.4627      2.00000
      6     -10.4208      2.00000
      7     -10.2523      2.00000
      8      -9.8366      2.00000
      9      -9.8155      2.00000
     10      -9.7283      2.00000
     11      -9.7173      2.00000
     12      -9.5035      2.00000
     13      -9.3694      2.00000
     14      -9.3098      2.00000
     15      -9.1862      2.00000
     16      -8.9833      2.00000
     17      -8.9512      2.00000
     18      -8.8143      2.00000
     19      -8.7814      2.00000
     20      -8.7536      2.00000
     21      -8.7278      2.00000
     22      -8.7186      2.00000
     23      -8.6105      2.00000
     24      -8.5216      2.00000
     25      -8.5006      2.00000
     26      -8.4918      2.00000
     27      -8.4216      2.00000
     28      -8.3219      2.00000
     29      -8.2482      2.00000
     30      -8.0977      2.00000
     31      -8.0959      2.00000
     32      -8.0932      2.00000
     33      -7.9505      2.00000
     34      -7.9085      2.00000
     35      -7.8649      2.00000
     36      -7.8581      2.00000
     37      -7.8407      2.00000
     38      -7.8289      2.00000
     39      -7.8155      2.00000
     40      -7.7715      2.00000
     41      -7.6915      2.00000
     42      -7.6847      2.00000
     43      -7.6651      2.00000
     44      -7.6176      2.00000
     45      -7.5054      2.00000
     46      -7.4320      2.00000
     47      -7.3241      2.00000
     48      -7.3074      2.00000
     49       1.6243      2.00000
     50       1.6783      2.00000
     51       1.7193      2.00000
     52       1.8088      2.00000
     53       1.8365      2.00000
     54       1.8526      2.00000
     55       1.9544      2.00000
     56       2.2375      2.00000
     57       2.2606      2.00000
     58       2.2607      2.00000
     59       2.2830      2.00000
     60       2.3152      2.00000
     61       2.3180      2.00000
     62       2.4150      2.00000
     63       2.4832      2.00000
     64       2.5299      2.00000
     65       2.5355      2.00000
     66       2.5701      2.00000
     67       2.6981      2.00000
     68       2.8992      2.00000
     69       2.9320      2.00000
     70       2.9885      2.00000
     71       3.0766      2.00000
     72       3.1441      2.00000
     73       3.2700      2.00000
     74       3.3169      2.00000
     75       3.3303      2.00000
     76       3.4907      2.00000
     77       3.4927      2.00000
     78       3.5184      2.00000
     79       3.6114      2.00000
     80       3.6733      2.00000
     81       3.7033      2.00000
     82       3.7122      2.00000
     83       3.7333      2.00000
     84       3.8655      2.00000
     85       3.8674      2.00000
     86       3.9058      2.00000
     87       4.0032      2.00000
     88       4.0209      2.00000
     89       4.0370      2.00000
     90       4.0642      2.00000
     91       4.1451      2.00000
     92       4.2312      2.00000
     93       4.3539      2.00000
     94       4.3876      2.00000
     95       4.5460      2.00000
     96       4.6998      2.00000
     97       4.8450      2.00000
     98       4.9865      2.00000
     99       5.0540      2.00000
    100       5.0665      2.00000
    101       5.1313      2.00000
    102       5.1489      2.00000
    103       5.1997      2.00000
    104       5.3153      2.00000
    105       5.3705      2.00000
    106       5.4315      2.00000
    107       5.6289      2.00000
    108       5.6872      2.00000
    109       5.7455      2.00000
    110       5.7962      2.00000
    111       5.8495      2.00000
    112       5.8971      2.00000
    113       5.9700      2.00000
    114       6.0041      2.00000
    115       6.0313      2.00000
    116       6.0455      2.00000
    117       6.0899      2.00000
    118       6.1330      2.00000
    119       6.1540      2.00000
    120       6.3273      2.00000
    121       6.3528      2.00000
    122       6.3723      2.00000
    123       6.4014      2.00000
    124       6.4049      2.00000
    125       6.4440      2.00000
    126       6.4858      2.00000
    127       6.5767      2.00000
    128       6.6032      2.00000
    129       6.7435      2.00000
    130       6.8155      2.00000
    131       6.8906      2.00000
    132       6.9197      2.00000
    133       7.0192      2.00000
    134       7.0196      2.00000
    135       7.1847      2.00000
    136       7.1922      2.00000
    137       7.2030      2.00000
    138       7.2459      2.00000
    139       7.2764      2.00000
    140       7.3740      2.00000
    141       7.3836      2.00000
    142       7.3940      2.00000
    143       7.4408      2.00000
    144       7.4523      2.00000
    145       7.4646      2.00000
    146       7.4846      2.00000
    147       7.5316      2.00000
    148       7.5417      2.00000
    149       7.5892      2.00000
    150       7.6521      2.00000
    151       7.7526      2.00000
    152       7.7723      2.00000
    153       7.7739      2.00000
    154       7.8181      2.00000
    155       7.8344      2.00000
    156       7.8411      2.00000
    157       7.9537      2.00000
    158       7.9605      2.00000
    159       8.0625      2.00000
[...]
     0.000000000  9.189814095  0.000000000     0.000000000  0.108816129  0.000000000
     0.000000000  0.000000000  6.531370816     0.000000000  0.000000000  0.153107216

  length of vectors
     8.935868194  9.189814095  6.531370816     0.111908544  0.108816129  0.153107216


 FORCES acting on ions
    electron-ion (+dipol)            ewald-force                    non-local-force                 convergence-correction
 -----------------------------------------------------------------------------------------------
   0.400E+01 -.350E+01 0.190E+02   -.380E+01 0.815E+00 -.182E+02   -.221E+00 0.328E+01 -.124E+01   0.109E-03 -.215E-04 0.127E-03
   0.400E+01 -.350E+01 0.190E+02   -.380E+01 0.815E+00 -.182E+02   -.221E+00 0.328E+01 -.124E+01   0.109E-03 -.184E-04 0.127E-03
   0.400E+01 -.350E+01 0.190E+02   -.380E+01 0.815E+00 -.182E+02   -.221E+00 0.328E+01 -.124E+01   0.108E-03 -.215E-04 0.127E-03
   0.400E+01 -.350E+01 0.190E+02   -.380E+01 0.815E+00 -.182E+02   -.221E+00 0.328E+01 -.124E+01   0.108E-03 -.184E-04 0.127E-03
   0.400E+01 0.350E+01 -.190E+02   -.380E+01 -.815E+00 0.182E+02   -.221E+00 -.328E+01 0.124E+01   0.109E-03 0.200E-04 -.127E-03
   0.400E+01 0.350E+01 -.190E+02   -.380E+01 -.815E+00 0.182E+02   -.221E+00 -.328E+01 0.124E+01   0.109E-03 0.199E-04 -.127E-03
   0.400E+01 0.350E+01 -.190E+02   -.380E+01 -.815E+00 0.182E+02   -.221E+00 -.328E+01 0.124E+01   0.108E-03 0.200E-04 -.127E-03
   0.400E+01 0.350E+01 -.190E+02   -.380E+01 -.815E+00 0.182E+02   -.221E+00 -.328E+01 0.124E+01   0.108E-03 0.199E-04 -.127E-03
   -.400E+01 -.350E+01 -.190E+02   0.380E+01 0.815E+00 0.182E+02   0.221E+00 0.328E+01 0.124E+01   -.108E-03 -.195E-04 -.127E-03
   -.400E+01 -.350E+01 -.190E+02   0.380E+01 0.815E+00 0.182E+02   0.221E+00 0.328E+01 0.124E+01   -.108E-03 -.204E-04 -.127E-03
   -.400E+01 -.350E+01 -.190E+02   0.380E+01 0.815E+00 0.182E+02   0.221E+00 0.328E+01 0.124E+01   -.109E-03 -.195E-04 -.127E-03
   -.400E+01 -.350E+01 -.190E+02   0.380E+01 0.815E+00 0.182E+02   0.221E+00 0.328E+01 0.124E+01   -.109E-03 -.204E-04 -.127E-03
   -.400E+01 0.350E+01 0.190E+02   0.380E+01 -.815E+00 -.182E+02   0.221E+00 -.328E+01 -.124E+01   -.108E-03 0.215E-04 0.127E-03
   -.400E+01 0.350E+01 0.190E+02   0.380E+01 -.815E+00 -.182E+02   0.221E+00 -.328E+01 -.124E+01   -.108E-03 0.184E-04 0.127E-03
   -.400E+01 0.350E+01 0.190E+02   0.380E+01 -.815E+00 -.182E+02   0.221E+00 -.328E+01 -.124E+01   -.109E-03 0.216E-04 0.127E-03
   -.400E+01 0.350E+01 0.190E+02   0.380E+01 -.815E+00 -.182E+02   0.221E+00 -.328E+01 -.124E+01   -.109E-03 0.184E-04 0.127E-03
   -.400E+01 0.350E+01 -.190E+02   0.380E+01 -.815E+00 0.182E+02   0.221E+00 -.328E+01 0.124E+01   -.108E-03 0.216E-04 -.127E-03
   -.400E+01 0.350E+01 -.190E+02   0.380E+01 -.815E+00 0.182E+02   0.221E+00 -.328E+01 0.124E+01   -.108E-03 0.184E-04 -.127E-03
   -.400E+01 0.350E+01 -.190E+02   0.380E+01 -.815E+00 0.182E+02   0.221E+00 -.328E+01 0.124E+01   -.108E-03 0.216E-04 -.127E-03
   -.400E+01 0.350E+01 -.190E+02   0.380E+01 -.815E+00 0.182E+02   0.221E+00 -.328E+01 0.124E+01   -.108E-03 0.184E-04 -.127E-03
   -.400E+01 -.350E+01 0.190E+02   0.380E+01 0.815E+00 -.182E+02   0.221E+00 0.328E+01 -.124E+01   -.108E-03 -.195E-04 0.127E-03
   -.400E+01 -.350E+01 0.190E+02   0.380E+01 0.815E+00 -.182E+02   0.221E+00 0.328E+01 -.124E+01   -.108E-03 -.204E-04 0.127E-03
   -.400E+01 -.350E+01 0.190E+02   0.380E+01 0.815E+00 -.182E+02   0.221E+00 0.328E+01 -.124E+01   -.108E-03 -.195E-04 0.127E-03
   -.400E+01 -.350E+01 0.190E+02   0.380E+01 0.815E+00 -.182E+02   0.221E+00 0.328E+01 -.124E+01   -.108E-03 -.204E-04 0.127E-03
   0.400E+01 0.350E+01 0.190E+02   -.380E+01 -.815E+00 -.182E+02   -.221E+00 -.328E+01 -.124E+01   0.108E-03 0.200E-04 0.127E-03
   0.400E+01 0.350E+01 0.190E+02   -.380E+01 -.815E+00 -.182E+02   -.221E+00 -.328E+01 -.124E+01   0.108E-03 0.199E-04 0.127E-03
   0.400E+01 0.350E+01 0.190E+02   -.380E+01 -.815E+00 -.182E+02   -.221E+00 -.328E+01 -.124E+01   0.108E-03 0.200E-04 0.127E-03
   0.400E+01 0.350E+01 0.190E+02   -.380E+01 -.815E+00 -.182E+02   -.221E+00 -.328E+01 -.124E+01   0.108E-03 0.199E-04 0.127E-03
   0.400E+01 -.350E+01 -.190E+02   -.380E+01 0.815E+00 0.182E+02   -.221E+00 0.328E+01 0.124E+01   0.108E-03 -.215E-04 -.128E-03
   0.400E+01 -.350E+01 -.190E+02   -.380E+01 0.815E+00 0.182E+02   -.221E+00 0.328E+01 0.124E+01   0.108E-03 -.184E-04 -.127E-03
   0.400E+01 -.350E+01 -.190E+02   -.380E+01 0.815E+00 0.182E+02   -.221E+00 0.328E+01 0.124E+01   0.108E-03 -.215E-04 -.127E-03
   0.400E+01 -.350E+01 -.190E+02   -.380E+01 0.815E+00 0.182E+02   -.221E+00 0.328E+01 0.124E+01   0.108E-03 -.184E-04 -.127E-03
   0.773E+01 0.379E+01 -.210E+02   -.631E+01 -.300E+01 0.225E+02   -.123E+01 -.629E+00 -.124E+01   -.636E-04 0.444E-04 -.620E-03
   0.773E+01 0.379E+01 -.210E+02   -.631E+01 -.300E+01 0.225E+02   -.123E+01 -.629E+00 -.124E+01   -.636E-04 0.512E-04 -.620E-03
   0.773E+01 0.379E+01 -.210E+02   -.631E+01 -.300E+01 0.225E+02   -.123E+01 -.629E+00 -.124E+01   -.669E-04 0.444E-04 -.619E-03
   0.773E+01 0.379E+01 -.210E+02   -.631E+01 -.300E+01 0.225E+02   -.123E+01 -.629E+00 -.124E+01   -.669E-04 0.512E-04 -.620E-03
   0.773E+01 -.379E+01 0.210E+02   -.631E+01 0.300E+01 -.225E+02   -.123E+01 0.629E+00 0.124E+01   -.636E-04 -.482E-04 0.621E-03
   0.773E+01 -.379E+01 0.210E+02   -.631E+01 0.300E+01 -.225E+02   -.123E+01 0.629E+00 0.124E+01   -.636E-04 -.474E-04 0.621E-03
   0.773E+01 -.379E+01 0.210E+02   -.631E+01 0.300E+01 -.225E+02   -.123E+01 0.629E+00 0.124E+01   -.669E-04 -.482E-04 0.621E-03
   0.773E+01 -.379E+01 0.210E+02   -.631E+01 0.300E+01 -.225E+02   -.123E+01 0.629E+00 0.124E+01   -.669E-04 -.474E-04 0.621E-03
   -.773E+01 0.379E+01 0.210E+02   0.631E+01 -.300E+01 -.225E+02   0.123E+01 -.629E+00 0.124E+01   0.670E-04 0.494E-04 0.621E-03
   -.773E+01 0.379E+01 0.210E+02   0.631E+01 -.300E+01 -.225E+02   0.123E+01 -.629E+00 0.124E+01   0.670E-04 0.463E-04 0.621E-03
   -.773E+01 0.379E+01 0.210E+02   0.631E+01 -.300E+01 -.225E+02   0.123E+01 -.629E+00 0.124E+01   0.633E-04 0.494E-04 0.621E-03
   -.773E+01 0.379E+01 0.210E+02   0.631E+01 -.300E+01 -.225E+02   0.123E+01 -.629E+00 0.124E+01   0.633E-04 0.463E-04 0.621E-03
   -.773E+01 -.379E+01 -.210E+02   0.631E+01 0.300E+01 0.225E+02   0.123E+01 0.629E+00 -.124E+01   0.670E-04 -.440E-04 -.621E-03
   -.773E+01 -.379E+01 -.210E+02   0.631E+01 0.300E+01 0.225E+02   0.123E+01 0.629E+00 -.124E+01   0.670E-04 -.517E-04 -.622E-03
   -.773E+01 -.379E+01 -.210E+02   0.631E+01 0.300E+01 0.225E+02   0.123E+01 0.629E+00 -.124E+01   0.633E-04 -.440E-04 -.622E-03
   -.773E+01 -.379E+01 -.210E+02   0.631E+01 0.300E+01 0.225E+02   0.123E+01 0.629E+00 -.124E+01   0.633E-04 -.517E-04 -.622E-03
   -.773E+01 -.379E+01 0.210E+02   0.631E+01 0.300E+01 -.225E+02   0.123E+01 0.629E+00 0.124E+01   0.646E-04 -.440E-04 0.620E-03
   -.773E+01 -.379E+01 0.210E+02   0.631E+01 0.300E+01 -.225E+02   0.123E+01 0.629E+00 0.124E+01   0.646E-04 -.517E-04 0.621E-03
   -.773E+01 -.379E+01 0.210E+02   0.631E+01 0.300E+01 -.225E+02   0.123E+01 0.629E+00 0.124E+01   0.661E-04 -.440E-04 0.621E-03
   -.773E+01 -.379E+01 0.210E+02   0.631E+01 0.300E+01 -.225E+02   0.123E+01 0.629E+00 0.124E+01   0.661E-04 -.517E-04 0.621E-03
   -.773E+01 0.379E+01 -.210E+02   0.631E+01 -.300E+01 0.225E+02   0.123E+01 -.629E+00 -.124E+01   0.646E-04 0.494E-04 -.620E-03
   -.773E+01 0.379E+01 -.210E+02   0.631E+01 -.300E+01 0.225E+02   0.123E+01 -.629E+00 -.124E+01   0.646E-04 0.463E-04 -.620E-03
   -.773E+01 0.379E+01 -.210E+02   0.631E+01 -.300E+01 0.225E+02   0.123E+01 -.629E+00 -.124E+01   0.661E-04 0.494E-04 -.620E-03
   -.773E+01 0.379E+01 -.210E+02   0.631E+01 -.300E+01 0.225E+02   0.123E+01 -.629E+00 -.124E+01   0.661E-04 0.463E-04 -.620E-03
   0.773E+01 -.379E+01 -.210E+02   -.631E+01 0.300E+01 0.225E+02   -.123E+01 0.629E+00 -.124E+01   -.643E-04 -.482E-04 -.622E-03
   0.773E+01 -.379E+01 -.210E+02   -.631E+01 0.300E+01 0.225E+02   -.123E+01 0.629E+00 -.124E+01   -.643E-04 -.474E-04 -.622E-03
   0.773E+01 -.379E+01 -.210E+02   -.631E+01 0.300E+01 0.225E+02   -.123E+01 0.629E+00 -.124E+01   -.663E-04 -.482E-04 -.622E-03
   0.773E+01 -.379E+01 -.210E+02   -.631E+01 0.300E+01 0.225E+02   -.123E+01 0.629E+00 -.124E+01   -.664E-04 -.474E-04 -.622E-03
   0.773E+01 0.379E+01 0.210E+02   -.631E+01 -.300E+01 -.225E+02   -.123E+01 -.629E+00 0.124E+01   -.643E-04 0.444E-04 0.620E-03
   0.773E+01 0.379E+01 0.210E+02   -.631E+01 -.300E+01 -.225E+02   -.123E+01 -.629E+00 0.124E+01   -.643E-04 0.512E-04 0.621E-03
   0.773E+01 0.379E+01 0.210E+02   -.631E+01 -.300E+01 -.225E+02   -.123E+01 -.629E+00 0.124E+01   -.664E-04 0.444E-04 0.620E-03
   0.773E+01 0.379E+01 0.210E+02   -.631E+01 -.300E+01 -.225E+02   -.123E+01 -.629E+00 0.124E+01   -.664E-04 0.513E-04 0.621E-03
   -.229E+02 -.406E-04 -.335E-04   0.242E+02 0.134E-04 0.458E-04   -.104E+01 0.388E-19 0.285E-19   -.215E-03 -.223E-05 -.118E-05
   -.229E+02 -.380E-04 -.287E-04   0.242E+02 -.480E-05 0.545E-05   -.104E+01 -.333E-19 0.746E-19   -.215E-03 0.223E-05 -.616E-06
   -.229E+02 -.406E-04 -.335E-04   0.242E+02 0.134E-04 0.458E-04   -.104E+01 -.931E-19 -.273E-19   -.218E-03 -.223E-05 -.118E-05
   -.229E+02 -.380E-04 -.287E-04   0.242E+02 -.480E-05 0.545E-05   -.104E+01 -.104E-18 0.748E-19   -.218E-03 0.223E-05 -.616E-06
   0.229E+02 -.391E-04 -.381E-04   -.242E+02 -.162E-05 -.212E-04   0.104E+01 -.124E-19 -.847E-19   0.218E-03 0.306E-05 0.653E-06
   0.229E+02 -.412E-04 -.331E-04   -.242E+02 0.176E-04 -.486E-04   0.104E+01 -.360E-20 -.425E-19   0.218E-03 -.306E-05 0.116E-05
   0.229E+02 -.391E-04 -.381E-04   -.242E+02 -.162E-05 -.212E-04   0.104E+01 0.936E-19 -.289E-20   0.215E-03 0.306E-05 0.653E-06
   0.229E+02 -.412E-04 -.331E-04   -.242E+02 0.176E-04 -.486E-04   0.104E+01 -.728E-19 -.418E-19   0.215E-03 -.306E-05 0.116E-05
   0.229E+02 -.379E-04 -.492E-04   -.242E+02 -.446E-05 0.134E-04   0.104E+01 -.282E-19 0.665E-19   0.216E-03 0.306E-05 -.642E-06
   0.229E+02 -.399E-04 -.541E-04   -.242E+02 0.148E-04 0.407E-04   0.104E+01 0.774E-19 0.177E-19   0.216E-03 -.306E-05 -.115E-05
   0.229E+02 -.379E-04 -.492E-04   -.242E+02 -.446E-05 0.134E-04   0.104E+01 0.377E-19 0.606E-19   0.218E-03 0.306E-05 -.642E-06
   0.229E+02 -.399E-04 -.541E-04   -.242E+02 0.148E-04 0.407E-04   0.104E+01 0.597E-19 0.261E-19   0.218E-03 -.306E-05 -.115E-05
   -.229E+02 -.412E-04 -.126E-04   0.242E+02 0.162E-04 -.536E-04   -.104E+01 -.119E-18 -.308E-19   -.216E-03 -.223E-05 0.119E-05
   -.229E+02 -.387E-04 -.175E-04   0.242E+02 -.196E-05 -.133E-04   -.104E+01 0.500E-19 -.357E-19   -.216E-03 0.223E-05 0.626E-06
   -.229E+02 -.412E-04 -.126E-04   0.242E+02 0.162E-04 -.536E-04   -.104E+01 -.120E-18 -.632E-19   -.218E-03 -.223E-05 0.119E-05
   -.229E+02 -.387E-04 -.175E-04   0.242E+02 -.196E-05 -.133E-04   -.104E+01 -.184E-20 -.329E-19   -.218E-03 0.223E-05 0.626E-06
 -----------------------------------------------------------------------------------------------
   0.448E-02 -.209E-02 -.722E-03   -.426E-13 0.504E-13 -.234E-12   0.000E+00 0.422E-14 0.222E-14   0.102E-06 -.264E-07 0.352E-08


 POSITION                                       TOTAL-FORCE (eV/Angst)
 -----------------------------------------------------------------------------------
      1.12726      0.14425      2.54716        -0.024244      0.597334     -0.421383
      1.12726      4.73916      2.54716        -0.024244      0.597334     -0.421383
      5.59520      0.14425      2.54716        -0.024244      0.597334     -0.421383
      5.59520      4.73916      2.54716        -0.024244      0.597334     -0.421383
      1.12726      2.15320      3.98421        -0.024244     -0.597334      0.421383
      1.12726      6.74811      3.98421        -0.024244     -0.597334      0.421383
      5.59520      2.15320      3.98421        -0.024244     -0.597334      0.421383
      5.59520      6.74811      3.98421        -0.024244     -0.597334      0.421383
      1.10670      2.44171      0.71853         0.024244      0.597334      0.421383
      1.10670      7.03662      0.71853         0.024244      0.597334      0.421383
      5.57464      2.44171      0.71853         0.024244      0.597334      0.421383
      5.57464      7.03662      0.71853         0.024244      0.597334      0.421383
      1.10670      4.45065      5.81284         0.024244     -0.597334     -0.421383
      1.10670      9.04556      5.81284         0.024244     -0.597334     -0.421383
      5.57464      4.45065      5.81284         0.024244     -0.597334     -0.421383
      5.57464      9.04556      5.81284         0.024244     -0.597334     -0.421383
      3.34067      4.45065      3.98421         0.024244     -0.597334      0.421383
      3.34067      9.04556      3.98421         0.024244     -0.597334      0.421383
      7.80860      4.45065      3.98421         0.024244     -0.597334      0.421383
      7.80860      9.04556      3.98421         0.024244     -0.597334      0.421383
      3.34067      2.44171      2.54716         0.024244      0.597334     -0.421383
      3.34067      7.03662      2.54716         0.024244      0.597334     -0.421383
      7.80860      2.44171      2.54716         0.024244      0.597334     -0.421383
      7.80860      7.03662      2.54716         0.024244      0.597334     -0.421383
      3.36123      2.15320      5.81284        -0.024244     -0.597334     -0.421383
      3.36123      6.74811      5.81284        -0.024244     -0.597334     -0.421383
      7.82917      2.15320      5.81284        -0.024244     -0.597334     -0.421383
      7.82917      6.74811      5.81284        -0.024244     -0.597334     -0.421383
      3.36123      0.14425      0.71853        -0.024244      0.597334      0.421383
      3.36123      4.73916      0.71853        -0.024244      0.597334      0.421383
      7.82917      0.14425      0.71853        -0.024244      0.597334      0.421383
      7.82917      4.73916      0.71853        -0.024244      0.597334      0.421383
      0.47839      0.47048      4.27249         0.196133      0.165727      0.257202
      0.47839      5.06538      4.27249         0.196133      0.165727      0.257202
      4.94633      0.47048      4.27249         0.196133      0.165727      0.257202
      4.94633      5.06538      4.27249         0.196133      0.165727      0.257202
      0.47839      1.82698      2.25888         0.196133     -0.165727     -0.257202
      0.47839      6.42188      2.25888         0.196133     -0.165727     -0.257202
      4.94633      1.82698      2.25888         0.196133     -0.165727     -0.257202
      4.94633      6.42188      2.25888         0.196133     -0.165727     -0.257202
      1.75557      2.76793      5.52457        -0.196133      0.165727     -0.257202
      1.75557      7.36284      5.52457        -0.196133      0.165727     -0.257202
      6.22351      2.76793      5.52457        -0.196133      0.165727     -0.257202
      6.22351      7.36284      5.52457        -0.196133      0.165727     -0.257202
      1.75557      4.12443      1.00680        -0.196133     -0.165727      0.257202
      1.75557      8.71934      1.00680        -0.196133     -0.165727      0.257202
      6.22351      4.12443      1.00680        -0.196133     -0.165727      0.257202
      6.22351      8.71934      1.00680        -0.196133     -0.165727      0.257202
      3.98954      4.12443      2.25888        -0.196133     -0.165727     -0.257202
      3.98954      8.71934      2.25888        -0.196133     -0.165727     -0.257202
      8.45748      4.12443      2.25888        -0.196133     -0.165727     -0.257202
      8.45748      8.71934      2.25888        -0.196133     -0.165727     -0.257202
      3.98954      2.76793      4.27249        -0.196133      0.165727      0.257202
      3.98954      7.36284      4.27249        -0.196133      0.165727      0.257202
      8.45748      2.76793      4.27249        -0.196133      0.165727      0.257202
      8.45748      7.36284      4.27249        -0.196133      0.165727      0.257202
      2.71236      1.82698      1.00680         0.196133     -0.165727      0.257202
      2.71236      6.42188      1.00680         0.196133     -0.165727      0.257202
      7.18029      1.82698      1.00680         0.196133     -0.165727      0.257202
      7.18029      6.42188      1.00680         0.196133     -0.165727      0.257202
      2.71236      0.47048      5.52457         0.196133      0.165727     -0.257202
      2.71236      5.06538      5.52457         0.196133      0.165727     -0.257202
      7.18029      0.47048      5.52457         0.196133      0.165727     -0.257202
      7.18029      5.06538      5.52457         0.196133      0.165727     -0.257202
      0.22424      1.14873      0.00000         0.282853     -0.000000     -0.000000
      0.22424      5.74363      0.00000         0.282853     -0.000000     -0.000000
      4.69217      1.14873      0.00000         0.282853     -0.000000     -0.000000
      4.69217      5.74363      0.00000         0.282853     -0.000000     -0.000000
      2.00973      3.44618      3.26569        -0.282853     -0.000000     -0.000000
      2.00973      8.04109      3.26569        -0.282853     -0.000000     -0.000000
      6.47766      3.44618      3.26569        -0.282853     -0.000000     -0.000000
      6.47766      8.04109      3.26569        -0.282853     -0.000000     -0.000000
      4.24370      3.44618      0.00000        -0.282853     -0.000000     -0.000000
      4.24370      8.04109      0.00000        -0.282853     -0.000000     -0.000000
      8.71163      3.44618      0.00000        -0.282853     -0.000000     -0.000000
      8.71163      8.04109      0.00000        -0.282853     -0.000000     -0.000000
      2.45820      1.14873      3.26569         0.282853     -0.000000     -0.000000
      2.45820      5.74363      3.26569         0.282853     -0.000000     -0.000000
      6.92614      1.14873      3.26569         0.282853     -0.000000     -0.000000
      6.92614      5.74363      3.26569         0.282853     -0.000000     -0.000000
 -----------------------------------------------------------------------------------
    total drift:                                0.004485     -0.002092     -0.000722


--------------------------------------------------------------------------------------------------------



  FREE ENERGIE OF THE ION-ELECTRON SYSTEM (eV)
  ---------------------------------------------------
  free  energy   TOTEN  =      -556.13706164 eV

  energy  without entropy=     -556.13754488  energy(sigma->0) =     -556.13722272



--------------------------------------------------------------------------------------------------------


    POTLOK:  cpu time      0.3708: real time      0.3737


--------------------------------------------------------------------------------------------------------


 writing wavefunctions
     LOOP+:  cpu time    743.3727: real time    797.2609
    4ORBIT:  cpu time      0.0000: real time      0.0000

 total amount of memory used by VASP MPI-rank0   407223. kBytes
=======================================================================

   base      :      30000. kBytes
   nonlr-proj:       9400. kBytes
   fftplans  :      20716. kBytes
   grid      :      36753. kBytes
   one-center:        245. kBytes
   wavefun   :     310109. kBytes

  
  
 General timing and accounting informations for this job:
 ========================================================
  
                  Total CPU time used (sec):      750.716
                            User time (sec):      748.073
                          System time (sec):        2.643
                         Elapsed time (sec):      852.706
  
                   Maximum memory used (kb):      581544.
                   Average memory used (kb):          N/A
  
                          Minor page faults:       300585
                          Major page faults:           37
                 Voluntary context switches:          995
