 vasp.6.3.0 20Jan22 (build Jul  1 2024 12:21:46) complex                         
 executed on             LinuxGNU date 2024.10.21  12:39:17
 running    1 mpi-ranks, with    1 threads/rank
 distrk:  each k-point on    1 cores,    1 groups
 distr:  one band on NCORE=   1 cores,    1 groups


--------------------------------------------------------------------------------------------------------


 INCAR:
   SYSTEM = Alumina_orthorombic_cell_under_strain
   ISTART = 0
   ICHARG = 2
   ENCUT = 400
   ALGO = Normal
   PREC = Normal
   ISPIN = 1
   LWAVE = T             (Write WAVECAR)
   LCHARG = T             (Write CHGCAR)
   NPAR = 1
   EDIFF = 1E-6
   NSW = 0
   NELM = 100
   POTIM = 0.5
   IBRION = -1
   ISMEAR = 1
   SIGMA = 0.026
   EDIFFG = -0.001
   ISIF = 2
   LREAL = Auto

 POTCAR:    PAW_PBE Al 04Jan2001                  
 POTCAR:    PAW_PBE O 08Apr2002                   
 POTCAR:    PAW_PBE Al 04Jan2001                  
   SHA256 =  17880443556af62b473fe41b62a467bd001ad55d2cabe504a3f22e34d4e9db96 Al/POTCAR             
   COPYR  = (c) Copyright 04Jan2001 Georg Kresse                                                    
   COPYR  = This file is part of the software VASP. Any use, copying, and all other rights are regul
   COPYR  = If you do not have a valid VASP license, you may not use, copy or distribute this file. 
   VRHFIN =Al: s2p1                                                                                 
   LEXCH  = PE                                                                                      
   EATOM  =    53.5387 eV,    3.9350 Ry                                                             
                                                                                                    
   TITEL  = PAW_PBE Al 04Jan2001                                                                    
   LULTRA =        F    use ultrasoft PP ?                                                          
   IUNSCR =        1    unscreen: 0-lin 1-nonlin 2-no                                               
   RPACOR =    1.500    partial core radius                                                         
   POMASS =   26.981; ZVAL   =    3.000    mass and valenz                                          
   RCORE  =    1.900    outmost cutoff radius                                                       
   RWIGS  =    2.650; RWIGS  =    1.402    wigner-seitz radius (au A)                               
   ENMAX  =  240.300; ENMIN  =  180.225 eV                                                          
   ICORE  =        2    local potential                                                             
   LCOR   =        T    correct aug charges                                                         
   LPAW   =        T    paw PP                                                                      
   EAUG   =  291.052                                                                                
   DEXC   =    0.000                                                                                
   RMAX   =    1.939    core radius for proj-oper                                                   
   RAUG   =    1.300    factor for augmentation sphere                                              
   RDEP   =    1.966    radius for radial grids                                                     
   RDEPT  =    1.856    core radius for aug-charge                                                  
                                                                                                    
   Atomic configuration                                                                             
    6 entries                                                                                       
     n  l   j            E        occ.                                                              
     1  0  0.50     -1511.1048   2.0000                                                             
     2  0  0.50      -108.1629   2.0000                                                             
     2  1  1.50       -69.6402   6.0000                                                             
     3  0  0.50        -7.7528   2.0000                                                             
     3  1  1.50        -2.7121   1.0000                                                             
     3  2  2.50        -2.7212   0.0000                                                             
   Description                                                                                      
     l       E           TYP  RCUT    TYP  RCUT                                                     
     0     -7.7528455     23  1.900                                                                 
     0     -3.3096929     23  1.900                                                                 
     1     -2.7120682     23  1.900                                                                 
     1     13.6058260     23  1.900                                                                 
     2     -2.7211652      7  1.900                                                                 
  local pseudopotential read in
  partial core-charges read in
  partial kinetic energy density read in
  atomic valenz-charges read in
  non local Contribution for L=           0  read in
    real space projection operators read in
  non local Contribution for L=           0  read in
    real space projection operators read in
  non local Contribution for L=           1  read in
    real space projection operators read in
  non local Contribution for L=           1  read in
    real space projection operators read in
    PAW grid and wavefunctions read in

   number of l-projection  operators is LMAX  =           4
   number of lm-projection operators is LMMAX =           8

 POTCAR:    PAW_PBE O 08Apr2002                   
   SHA256 =  818f92134a0a090dccd8ba1447fa70422a3b330e708bb4f08108d8ae51209ddf O/POTCAR              
   COPYR  = (c) Copyright 08Apr2002 Georg Kresse                                                    
   COPYR  = This file is part of the software VASP. Any use, copying, and all other rights are regul
   COPYR  = If you do not have a valid VASP license, you may not use, copy or distribute this file. 
   VRHFIN =O: s2p4                                                                                  
   LEXCH  = PE                                                                                      
   EATOM  =   432.3788 eV,   31.7789 Ry                                                             
                                                                                                    
   TITEL  = PAW_PBE O 08Apr2002                                                                     
   LULTRA =        F    use ultrasoft PP ?                                                          
   IUNSCR =        1    unscreen: 0-lin 1-nonlin 2-no                                               
   RPACOR =    1.200    partial core radius                                                         
   POMASS =   16.000; ZVAL   =    6.000    mass and valenz                                          
   RCORE  =    1.520    outmost cutoff radius                                                       
   RWIGS  =    1.550; RWIGS  =    0.820    wigner-seitz radius (au A)                               
   ENMAX  =  400.000; ENMIN  =  300.000 eV                                                          
   ICORE  =        2    local potential                                                             
   LCOR   =        T    correct aug charges                                                         
   LPAW   =        T    paw PP                                                                      
   EAUG   =  605.392                                                                                
   DEXC   =    0.000                                                                                
   RMAX   =    1.553    core radius for proj-oper                                                   
   RAUG   =    1.300    factor for augmentation sphere                                              
   RDEP   =    1.550    radius for radial grids                                                     
   RDEPT  =    1.329    core radius for aug-charge                                                  
                                                                                                    
   Atomic configuration                                                                             
    4 entries                                                                                       
     n  l   j            E        occ.                                                              
     1  0  0.50      -514.6923   2.0000                                                             
     2  0  0.50       -23.9615   2.0000                                                             
     2  1  0.50        -9.0305   4.0000                                                             
     3  2  1.50        -9.5241   0.0000                                                             
   Description                                                                                      
     l       E           TYP  RCUT    TYP  RCUT                                                     
     0    -23.9615318     23  1.200                                                                 
     0     -9.5240782     23  1.200                                                                 
     1     -9.0304911     23  1.520                                                                 
     1      8.1634956     23  1.520                                                                 
     2     -9.5240782      7  1.500                                                                 
  local pseudopotential read in
  partial core-charges read in
  partial kinetic energy density read in
  kinetic energy density of atom read in
  atomic valenz-charges read in
  non local Contribution for L=           0  read in
    real space projection operators read in
  non local Contribution for L=           0  read in
    real space projection operators read in
  non local Contribution for L=           1  read in
    real space projection operators read in
  non local Contribution for L=           1  read in
    real space projection operators read in
    PAW grid and wavefunctions read in

   number of l-projection  operators is LMAX  =           4
   number of lm-projection operators is LMMAX =           8

 Optimization of the real space projectors (new method)

 maximal supplied QI-value         = 19.84
 optimisation between [QCUT,QGAM] = [ 10.12, 20.44] = [ 28.68,116.96] Ry 
 Optimized for a Real-space Cutoff    1.23 Angstroem

   l    n(q)    QCUT    max X(q) W(low)/X(q) W(high)/X(q)  e(spline) 
   0      7    10.119   176.870    0.49E-04    0.18E-03    0.39E-07
   0      7    10.119   105.762    0.46E-04    0.18E-03    0.38E-07
   1      7    10.119    55.370    0.30E-03    0.37E-03    0.12E-06
   1      7    10.119    20.208    0.27E-03    0.35E-03    0.11E-06
 Optimization of the real space projectors (new method)

 maximal supplied QI-value         = 24.76
 optimisation between [QCUT,QGAM] = [ 10.15, 20.30] = [ 28.85,115.39] Ry 
 Optimized for a Real-space Cutoff    1.38 Angstroem

   l    n(q)    QCUT    max X(q) W(low)/X(q) W(high)/X(q)  e(spline) 
   0      8    10.150    20.381    0.22E-03    0.32E-03    0.29E-06
   0      8    10.150    15.268    0.23E-03    0.35E-03    0.30E-06
   1      8    10.150     5.964    0.46E-03    0.53E-03    0.21E-06
   1      8    10.150     5.382    0.38E-03    0.45E-03    0.19E-06
  PAW_PBE Al 04Jan2001                  :
 energy of atom  1       EATOM=  -53.5387
 kinetic energy error for atom=    0.0005 (will be added to EATOM!!)
  PAW_PBE O 08Apr2002                   :
 energy of atom  2       EATOM= -432.3788
 kinetic energy error for atom=    0.1156 (will be added to EATOM!!)


 POSCAR:    Al  O
  positions in direct lattice
  No initial velocities read in
 exchange correlation table for  LEXCH =        8
   RHO(1)=    0.500       N(1)  =     2000
   RHO(2)=  100.500       N(2)  =     4000



--------------------------------------------------------------------------------------------------------


 ion  position               nearest neighbor table
   1  0.126  0.016  0.390-  70 1.82  52 1.84  46 1.87  77 1.91  37 1.92  33 1.97   5 2.60  18 2.80
                            20 2.83  31 3.04  29 3.04  10 3.09   9 3.09   6 3.12  22 3.36  21 3.36
   2  0.126  0.516  0.390-  69 1.82  51 1.84  45 1.87  78 1.91  38 1.92  34 1.97   6 2.60  17 2.80
                            19 2.83  32 3.04  30 3.04   9 3.09  10 3.09   5 3.12  21 3.36  22 3.36
   3  0.626  0.016  0.390-  72 1.82  50 1.84  48 1.87  79 1.91  39 1.92  35 1.97   7 2.60  20 2.80
                            18 2.83  29 3.04  31 3.04  12 3.09  11 3.09   8 3.12  24 3.36  23 3.36
   4  0.626  0.516  0.390-  71 1.82  49 1.84  47 1.87  80 1.91  40 1.92  36 1.97   8 2.60  19 2.80
                            17 2.83  30 3.04  32 3.04  11 3.09  12 3.09   7 3.12  23 3.36  24 3.36
   5  0.126  0.234  0.610-  69 1.82  55 1.84  41 1.87  77 1.91  33 1.92  37 1.97   1 2.60  21 2.80
                            23 2.83  27 3.04  25 3.04  13 3.09  14 3.09   2 3.12  17 3.36  18 3.36
   6  0.126  0.734  0.610-  70 1.82  56 1.84  42 1.87  78 1.91  34 1.92  38 1.97   2 2.60  22 2.80
                            24 2.83  28 3.04  26 3.04  14 3.09  13 3.09   1 3.12  18 3.36  17 3.36
   7  0.626  0.234  0.610-  71 1.82  53 1.84  43 1.87  79 1.91  35 1.92  39 1.97   3 2.60  23 2.80
                            21 2.83  25 3.04  27 3.04  15 3.09  16 3.09   4 3.12  19 3.36  20 3.36
   8  0.626  0.734  0.610-  72 1.82  54 1.84  44 1.87  80 1.91  36 1.92  40 1.97   4 2.60  24 2.80
                            22 2.83  26 3.04  28 3.04  16 3.09  15 3.09   3 3.12  20 3.36  19 3.36
   9  0.124  0.266  0.110-  65 1.82  57 1.84  37 1.87  75 1.91  45 1.92  41 1.97  13 2.60  27 2.80
                            25 2.83  21 3.04  23 3.04   2 3.09   1 3.09  14 3.12  32 3.36  31 3.36
  10  0.124  0.766  0.110-  66 1.82  58 1.84  38 1.87  76 1.91  46 1.92  42 1.97  14 2.60  28 2.80
                            26 2.83  22 3.04  24 3.04   1 3.09   2 3.09  13 3.12  31 3.36  32 3.36
  11  0.624  0.266  0.110-  67 1.82  59 1.84  39 1.87  73 1.91  47 1.92  43 1.97  15 2.60  25 2.80
                            27 2.83  23 3.04  21 3.04   4 3.09   3 3.09  16 3.12  30 3.36  29 3.36
  12  0.624  0.766  0.110-  68 1.82  60 1.84  40 1.87  74 1.91  48 1.92  44 1.97  16 2.60  26 2.80
                            28 2.83  24 3.04  22 3.04   3 3.09   4 3.09  15 3.12  29 3.36  30 3.36
  13  0.124  0.484  0.890-  66 1.82  62 1.84  34 1.87  75 1.91  41 1.92  45 1.97   9 2.60  32 2.80
                            30 2.83  17 3.04  19 3.04   5 3.09   6 3.09  10 3.12  27 3.36  28 3.36
  14  0.124  0.984  0.890-  65 1.82  61 1.84  33 1.87  76 1.91  42 1.92  46 1.97  10 2.60  31 2.80
                            29 2.83  18 3.04  20 3.04   6 3.09   5 3.09   9 3.12  28 3.36  27 3.36
  15  0.624  0.484  0.890-  68 1.82  64 1.84  36 1.87  73 1.91  43 1.92  47 1.97  11 2.60  30 2.80
                            32 2.83  19 3.04  17 3.04   7 3.09   8 3.09  12 3.12  25 3.36  26 3.36
  16  0.624  0.984  0.890-  67 1.82  63 1.84  35 1.87  74 1.91  44 1.92  48 1.97  12 2.60  29 2.80
                            31 2.83  20 3.04  18 3.04   8 3.09   7 3.09  11 3.12  26 3.36  25 3.36
  17  0.374  0.484  0.610-  78 1.82  36 1.84  62 1.87  69 1.91  53 1.92  49 1.97  21 2.60   2 2.80
                             4 2.83  13 3.04  15 3.04  25 3.09  26 3.09  22 3.12   5 3.36   6 3.36
  18  0.374  0.984  0.610-  77 1.82  35 1.84  61 1.87  70 1.91  54 1.92  50 1.97  22 2.60   1 2.80
                             3 2.83  14 3.04  16 3.04  26 3.09  25 3.09  21 3.12   6 3.36   5 3.36
  19  0.874  0.484  0.610-  80 1.82  34 1.84  64 1.87  71 1.91  55 1.92  51 1.97  23 2.60   4 2.80
                             2 2.83  15 3.04  13 3.04  27 3.09  28 3.09  24 3.12   7 3.36   8 3.36
  20  0.874  0.984  0.610-  79 1.82  33 1.84  63 1.87  72 1.91  56 1.92  52 1.97  24 2.60   3 2.80
                             1 2.83  16 3.04  14 3.04  28 3.09  27 3.09  23 3.12   8 3.36   7 3.36
  21  0.374  0.266  0.390-  77 1.82  39 1.84  57 1.87  69 1.91  49 1.92  53 1.97  17 2.60   5 2.80
                             7 2.83   9 3.04  11 3.04  30 3.09  29 3.09  18 3.12   2 3.36   1 3.36
  22  0.374  0.766  0.390-  78 1.82  40 1.84  58 1.87  70 1.91  50 1.92  54 1.97  18 2.60   6 2.80
                             8 2.83  10 3.04  12 3.04  29 3.09  30 3.09  17 3.12   1 3.36   2 3.36
  23  0.874  0.266  0.390-  79 1.82  37 1.84  59 1.87  71 1.91  51 1.92  55 1.97  19 2.60   7 2.80
                             5 2.83  11 3.04   9 3.04  32 3.09  31 3.09  20 3.12   4 3.36   3 3.36
  24  0.874  0.766  0.390-  80 1.82  38 1.84  60 1.87  72 1.91  52 1.92  56 1.97  20 2.60   8 2.80
                             6 2.83  12 3.04  10 3.04  31 3.09  32 3.09  19 3.12   3 3.36   4 3.36
  25  0.376  0.234  0.890-  73 1.82  41 1.84  53 1.87  67 1.91  61 1.92  57 1.97  29 2.60  11 2.80
                             9 2.83   7 3.04   5 3.04  17 3.09  18 3.09  30 3.12  15 3.36  16 3.36
  26  0.376  0.734  0.890-  74 1.82  42 1.84  54 1.87  68 1.91  62 1.92  58 1.97  30 2.60  12 2.80
                            10 2.83   8 3.04   6 3.04  18 3.09  17 3.09  29 3.12  16 3.36  15 3.36
  27  0.876  0.234  0.890-  75 1.82  43 1.84  55 1.87  65 1.91  63 1.92  59 1.97  31 2.60   9 2.80
                            11 2.83   5 3.04   7 3.04  19 3.09  20 3.09  32 3.12  13 3.36  14 3.36
  28  0.876  0.734  0.890-  76 1.82  44 1.84  56 1.87  66 1.91  64 1.92  60 1.97  32 2.60  10 2.80
                            12 2.83   6 3.04   8 3.04  20 3.09  19 3.09  31 3.12  14 3.36  13 3.36
  29  0.376  0.016  0.110-  74 1.82  46 1.84  50 1.87  67 1.91  57 1.92  61 1.97  25 2.60  16 2.80
                            14 2.83   3 3.04   1 3.04  22 3.09  21 3.09  26 3.12  12 3.36  11 3.36
  30  0.376  0.516  0.110-  73 1.82  45 1.84  49 1.87  68 1.91  58 1.92  62 1.97  26 2.60  15 2.80
                            13 2.83   4 3.04   2 3.04  22 3.09  21 3.09  25 3.12  11 3.36  12 3.36
  31  0.876  0.016  0.110-  76 1.82  48 1.84  52 1.87  65 1.91  59 1.92  63 1.97  27 2.60  14 2.80
                            16 2.83   1 3.04   3 3.04  24 3.09  23 3.09  28 3.12  10 3.36   9 3.36
  32  0.876  0.516  0.110-  75 1.82  47 1.84  51 1.87  66 1.91  60 1.92  64 1.97  28 2.60  13 2.80
                            15 2.83   2 3.04   4 3.04  24 3.09  23 3.09  27 3.12   9 3.36  10 3.36
  33  0.054  0.051  0.654-  20 1.84  14 1.87   5 1.92   1 1.97
  34  0.054  0.551  0.654-  19 1.84  13 1.87   6 1.92   2 1.97
  35  0.554  0.051  0.654-  18 1.84  16 1.87   7 1.92   3 1.97
  36  0.554  0.551  0.654-  17 1.84  15 1.87   8 1.92   4 1.97
  37  0.054  0.199  0.346-  23 1.84   9 1.87   1 1.92   5 1.97
  38  0.054  0.699  0.346-  24 1.84  10 1.87   2 1.92   6 1.97
  39  0.554  0.199  0.346-  21 1.84  11 1.87   3 1.92   7 1.97
  40  0.554  0.699  0.346-  22 1.84  12 1.87   4 1.92   8 1.97
  41  0.196  0.301  0.846-  25 1.84   5 1.87  13 1.92   9 1.97
  42  0.196  0.801  0.846-  26 1.84   6 1.87  14 1.92  10 1.97
  43  0.696  0.301  0.846-  27 1.84   7 1.87  15 1.92  11 1.97
  44  0.696  0.801  0.846-  28 1.84   8 1.87  16 1.92  12 1.97
  45  0.196  0.449  0.154-  30 1.84   2 1.87   9 1.92  13 1.97
  46  0.196  0.949  0.154-  29 1.84   1 1.87  10 1.92  14 1.97
  47  0.696  0.449  0.154-  32 1.84   4 1.87  11 1.92  15 1.97
  48  0.696  0.949  0.154-  31 1.84   3 1.87  12 1.92  16 1.97
  49  0.446  0.449  0.346-   4 1.84  30 1.87  21 1.92  17 1.97
  50  0.446  0.949  0.346-   3 1.84  29 1.87  22 1.92  18 1.97
  51  0.946  0.449  0.346-   2 1.84  32 1.87  23 1.92  19 1.97
  52  0.946  0.949  0.346-   1 1.84  31 1.87  24 1.92  20 1.97
  53  0.446  0.301  0.654-   7 1.84  25 1.87  17 1.92  21 1.97
  54  0.446  0.801  0.654-   8 1.84  26 1.87  18 1.92  22 1.97
  55  0.946  0.301  0.654-   5 1.84  27 1.87  19 1.92  23 1.97
  56  0.946  0.801  0.654-   6 1.84  28 1.87  20 1.92  24 1.97
  57  0.304  0.199  0.154-   9 1.84  21 1.87  29 1.92  25 1.97
  58  0.304  0.699  0.154-  10 1.84  22 1.87  30 1.92  26 1.97
  59  0.804  0.199  0.154-  11 1.84  23 1.87  31 1.92  27 1.97
  60  0.804  0.699  0.154-  12 1.84  24 1.87  32 1.92  28 1.97
  61  0.304  0.051  0.846-  14 1.84  18 1.87  25 1.92  29 1.97
  62  0.304  0.551  0.846-  13 1.84  17 1.87  26 1.92  30 1.97
  63  0.804  0.051  0.846-  16 1.84  20 1.87  27 1.92  31 1.97
  64  0.804  0.551  0.846-  15 1.84  19 1.87  28 1.92  32 1.97
  65  0.025  0.125  0.000-  14 1.82   9 1.82  27 1.91  31 1.91
  66  0.025  0.625  0.000-  13 1.82  10 1.82  28 1.91  32 1.91
  67  0.525  0.125  0.000-  16 1.82  11 1.82  25 1.91  29 1.91
  68  0.525  0.625  0.000-  15 1.82  12 1.82  26 1.91  30 1.91
  69  0.225  0.375  0.500-   5 1.82   2 1.82  17 1.91  21 1.91
  70  0.225  0.875  0.500-   6 1.82   1 1.82  18 1.91  22 1.91
  71  0.725  0.375  0.500-   7 1.82   4 1.82  19 1.91  23 1.91
  72  0.725  0.875  0.500-   8 1.82   3 1.82  20 1.91  24 1.91
  73  0.475  0.375  0.000-  25 1.82  30 1.82  15 1.91  11 1.91
  74  0.475  0.875  0.000-  29 1.82  26 1.82  16 1.91  12 1.91
  75  0.975  0.375  0.000-  27 1.82  32 1.82  13 1.91   9 1.91
  76  0.975  0.875  0.000-  31 1.82  28 1.82  14 1.91  10 1.91
  77  0.275  0.125  0.500-  18 1.82  21 1.82   5 1.91   1 1.91
  78  0.275  0.625  0.500-  17 1.82  22 1.82   6 1.91   2 1.91
  79  0.775  0.125  0.500-  20 1.82  23 1.82   7 1.91   3 1.91
  80  0.775  0.625  0.500-  19 1.82  24 1.82   8 1.91   4 1.91

  LATTYP: Found a simple orthorhombic cell.
 ALAT       =     6.8825197844
 B/A-ratio  =     1.3681458986
 C/A-ratio  =     1.4070268484
  
  Lattice vectors:
  
 A1 = (   0.0000000000,   0.0000000000,   6.8825197844)
 A2 = (   9.4162912149,   0.0000000000,   0.0000000000)
 A3 = (   0.0000000000,   9.6838901215,   0.0000000000)


Analysis of symmetry for initial positions (statically):
=====================================================================
 Subroutine PRICEL returns following result:
 
  LATTYP: Found a simple orthorhombic cell.
 ALAT       =     4.7081456077
 B/A-ratio  =     1.0284187391
 C/A-ratio  =     1.4618323981
  
  Lattice vectors:
  
 A1 = (   4.7081456077,   0.0000000000,   0.0000000000)
 A2 = (   0.0000000000,   4.8419451693,   0.0000000000)
 A3 = (   0.0000000000,   0.0000000000,   6.8825197844)
 
   4 primitive cells build up your supercell.
 

 Routine SETGRP: Setting up the symmetry group for a 
 simple orthorhombic supercell.


 Subroutine GETGRP returns: Found  8 space group operations
 (whereof  2 operations were pure point group operations)
 out of a pool of  8 trial point group operations.


The static configuration has the point symmetry S_2 .
 The point group associated with its full space group is D_2h.


Analysis of symmetry for dynamics (positions and initial velocities):
=====================================================================
 Subroutine PRICEL returns following result:
 
  LATTYP: Found a simple orthorhombic cell.
 ALAT       =     4.7081456077
 B/A-ratio  =     1.0284187391
 C/A-ratio  =     1.4618323981
  
  Lattice vectors:
  
 A1 = (   4.7081456077,   0.0000000000,   0.0000000000)
 A2 = (   0.0000000000,   4.8419451693,   0.0000000000)
 A3 = (   0.0000000000,   0.0000000000,   6.8825197844)
 
   4 primitive cells build up your supercell.
 

 Routine SETGRP: Setting up the symmetry group for a 
 simple orthorhombic supercell.


 Subroutine GETGRP returns: Found  8 space group operations
 (whereof  2 operations were pure point group operations)
 out of a pool of  8 trial point group operations.


The dynamic configuration has the point symmetry S_2 .
 The point group associated with its full space group is D_2h.


Analysis of constrained symmetry for selective dynamics:
=====================================================================
 Subroutine PRICEL returns following result:
 
  LATTYP: Found a simple orthorhombic cell.
 ALAT       =     4.7081456077
 B/A-ratio  =     1.0284187391
 C/A-ratio  =     1.4618323981
  
  Lattice vectors:
  
 A1 = (   4.7081456077,   0.0000000000,   0.0000000000)
 A2 = (   0.0000000000,   4.8419451693,   0.0000000000)
 A3 = (   0.0000000000,   0.0000000000,   6.8825197844)
 
   4 primitive cells build up your supercell.
 

 Routine SETGRP: Setting up the symmetry group for a 
 simple orthorhombic supercell.


 Subroutine GETGRP returns: Found  8 space group operations
 (whereof  2 operations were pure point group operations)
 out of a pool of  8 trial point group operations.


The constrained configuration has the point symmetry S_2 .
 The point group associated with its full space group is D_2h.


 Subroutine INISYM returns: Found  8 space group operations
 (whereof  2 operations are pure point group operations),
 and found     4 'primitive' translations


----------------------------------------------------------------------------------------

                                     Primitive cell                                     

  volume of cell :     156.8979

  direct lattice vectors                    reciprocal lattice vectors
     4.708145608  0.000000000  0.000000000     0.212397849  0.000000000  0.000000000
     0.000000000  4.841945169  0.000000000     0.000000000  0.206528568  0.000000000
     0.000000000  0.000000000  6.882519784     0.000000000  0.000000000  0.145295623

  length of vectors
     4.708145608  4.841945169  6.882519784     0.212397849  0.206528568  0.145295623

  position of ions in fractional coordinates (direct lattice)
     0.252301010  0.031394432  0.389988368
     0.252301010  0.468605564  0.610011602
     0.247698990  0.531394421  0.110011610
     0.247698990  0.968605501  0.889988398
     0.747698961  0.968605501  0.610011602
     0.747698961  0.531394421  0.389988368
     0.752301039  0.468605564  0.889988398
     0.752301039  0.031394432  0.110011610
     0.107072531  0.102390997  0.654148561
     0.107072531  0.397608992  0.345851469
     0.392927454  0.602391023  0.845851439
     0.392927454  0.897608899  0.154148517
     0.892927514  0.897608899  0.345851469
     0.892927514  0.602391023  0.654148561
     0.607072486  0.397608992  0.154148517
     0.607072486  0.102390997  0.845851439
     0.050188047  0.249999994  0.000000000
     0.449811960  0.749999961  0.500000000
     0.949811900  0.749999961  0.000000000
     0.550188099  0.249999994  0.500000000

  ion indices of the primitive-cell ions
   primitive index   ion index
                 1           1
                 2           5
                 3          10
                 4          14
                 5          18
                 6          22
                 7          27
                 8          31
                 9          33
                10          37
                11          42
                12          46
                13          52
                14          56
                15          57
                16          61
                17          65
                18          70
                19          76
                20          77

----------------------------------------------------------------------------------------



 KPOINTS: k-points                                

Automatic generation of k-mesh.
 Grid dimensions read from file:
 generate k-points for:    4    4    4

 Generating k-lattice:

  Cartesian coordinates                     Fractional coordinates (reciprocal lattice)
     0.026549731  0.000000000  0.000000000     0.250000000  0.000000000  0.000000000
     0.000000000  0.025816072  0.000000000     0.000000000  0.250000000  0.000000000
     0.000000000  0.000000000  0.036323906     0.000000000  0.000000000  0.250000000

  Length of vectors
     0.026549731  0.025816072  0.036323906

  Shift w.r.t. Gamma in fractional coordinates (k-lattice)
     0.500000000  0.500000000  0.500000000

 
 Subroutine IBZKPT returns following result:
 ===========================================
 
 Found      8 irreducible k-points:
 
 Following reciprocal coordinates:
            Coordinates               Weight
  0.125000  0.125000  0.125000      8.000000
  0.375000  0.125000  0.125000      8.000000
  0.125000  0.375000  0.125000      8.000000
  0.375000  0.375000  0.125000      8.000000
  0.125000  0.125000  0.375000      8.000000
  0.375000  0.125000  0.375000      8.000000
  0.125000  0.375000  0.375000      8.000000
  0.375000  0.375000  0.375000      8.000000
 
 Following cartesian coordinates:
            Coordinates               Weight
  0.013275  0.012908  0.018162      8.000000
  0.039825  0.012908  0.018162      8.000000
  0.013275  0.038724  0.018162      8.000000
  0.039825  0.038724  0.018162      8.000000
  0.013275  0.012908  0.054486      8.000000
  0.039825  0.012908  0.054486      8.000000
  0.013275  0.038724  0.054486      8.000000
  0.039825  0.038724  0.054486      8.000000
 


--------------------------------------------------------------------------------------------------------




 Dimension of arrays:
   k-points           NKPTS =      8   k-points in BZ     NKDIM =      8   number of bands    NBANDS=    233
   number of dos      NEDOS =    301   number of ions     NIONS =     80
   non local maximal  LDIM  =      4   non local SUM 2l+1 LMDIM =      8
   total plane-waves  NPLWV =  82944
   max r-space proj   IRMAX =   1506   max aug-charges    IRDMAX=   5343
   dimension x,y,z NGX =    48 NGY =   48 NGZ =   36
   dimension x,y,z NGXF=    96 NGYF=   96 NGZF=   72
   support grid    NGXF=    96 NGYF=   96 NGZF=   72
   ions per type =              32  48
   NGX,Y,Z   is equivalent  to a cutoff of   8.47,  8.24,  8.70 a.u.
   NGXF,Y,Z  is equivalent  to a cutoff of  16.95, 16.48, 17.39 a.u.

 SYSTEM =  Alumina_orthorombic_cell_under_strain   
 POSCAR =     Al  O                                

 Startparameter for this run:
   NWRITE =      2    write-flag & timer
   PREC   = normal    normal or accurate (medium, high low for compatibility)
   ISTART =      0    job   : 0-new  1-cont  2-samecut
   ICHARG =      2    charge: 1-file 2-atom 10-const
   ISPIN  =      1    spin polarized calculation?
   LNONCOLLINEAR =      F non collinear calculations
   LSORBIT =      F    spin-orbit coupling
   INIWAV =      1    electr: 0-lowe 1-rand  2-diag
   LASPH  =      F    aspherical Exc in radial PAW
 Electronic Relaxation 1
   ENCUT  =  400.0 eV  29.40 Ry    5.42 a.u.  15.36 15.79 11.22*2*pi/ulx,y,z
   ENINI  =  400.0     initial cutoff
   ENAUG  =  605.4 eV  augmentation charge cutoff
   NELM   =    100;   NELMIN=  2; NELMDL= -5     # of ELM steps 
   EDIFF  = 0.1E-05   stopping-criterion for ELM
   LREAL  =      T    real-space projection
   NLSPLINE    = F    spline interpolate recip. space projectors
   LCOMPAT=      F    compatible to vasp.4.4
   GGA_COMPAT  = T    GGA compatible to vasp.4.4-vasp.4.6
   LMAXPAW     = -100 max onsite density
   LMAXMIX     =    2 max onsite mixed and CHGCAR
   VOSKOWN=      0    Vosko Wilk Nusair interpolation
   ROPT   =   -0.00050  -0.00050
 Ionic relaxation
   EDIFFG = -.1E-02   stopping-criterion for IOM
   NSW    =      0    number of steps for IOM
   NBLOCK =      1;   KBLOCK =      1    inner block; outer block 
   IBRION =     -1    ionic relax: 0-MD 1-quasi-New 2-CG
   NFREE  =      0    steps in history (QN), initial steepest desc. (CG)
   ISIF   =      2    stress and relaxation
   IWAVPR =     10    prediction:  0-non 1-charg 2-wave 3-comb
   ISYM   =      2    0-nonsym 1-usesym 2-fastsym
   LCORR  =      T    Harris-Foulkes like correction to forces

   POTIM  = 0.5000    time-step for ionic-motion
   TEIN   =    0.0    initial temperature
   TEBEG  =    0.0;   TEEND  =   0.0 temperature during run
   SMASS  =  -3.00    Nose mass-parameter (am)
   estimated Nose-frequenzy (Omega)   =  0.10E-29 period in steps = 0.13E+47 mass=  -0.203E-26a.u.
   SCALEE = 1.0000    scale energy and forces
   NPACO  =    256;   APACO  = 10.0  distance and # of slots for P.C.
   PSTRESS=    0.0 pullay stress

  Mass of Ions in am
   POMASS =  26.98 16.00
  Ionic Valenz
   ZVAL   =   3.00  6.00
  Atomic Wigner-Seitz radii
   RWIGS  =  -1.00 -1.00
  virtual crystal weights 
   VCA    =   1.00  1.00
   NELECT =     384.0000    total number of electrons
   NUPDOWN=      -1.0000    fix difference up-down

 DOS related values:
   EMIN   =  10.00;   EMAX   =-10.00  energy-range for DOS
   EFERMI =   0.00
   ISMEAR =     1;   SIGMA  =   0.03  broadening in eV -4-tet -1-fermi 0-gaus

 Electronic relaxation 2 (details)
   IALGO  =     38    algorithm
   LDIAG  =      T    sub-space diagonalisation (order eigenvalues)
   LSUBROT=      F    optimize rotation matrix (better conditioning)
   TURBO    =      0    0=normal 1=particle mesh
   IRESTART =      0    0=no restart 2=restart with 2 vectors
   NREBOOT  =      0    no. of reboots
   NMIN     =      0    reboot dimension
   EREF     =   0.00    reference energy to select bands
   IMIX   =      4    mixing-type and parameters
     AMIX     =   0.40;   BMIX     =  1.00
     AMIX_MAG =   1.60;   BMIX_MAG =  1.00
     AMIN     =   0.10
     WC   =   100.;   INIMIX=   1;  MIXPRE=   1;  MAXMIX= -45

 Intra band minimization:
   WEIMIN = 0.0000     energy-eigenvalue tresh-hold
   EBREAK =  0.11E-08  absolut break condition
   DEPER  =   0.30     relativ break condition  

   TIME   =   0.40     timestep for ELM

  volume/ion in A,a.u.               =       7.84        52.94
  Fermi-wavevector in a.u.,A,eV,Ry     =   1.389823  2.626385 26.281123  1.931608
  Thomas-Fermi vector in A             =   2.513817

 Write flags
   LWAVE        =      T    write WAVECAR
   LDOWNSAMPLE  =      F    k-point downsampling of WAVECAR
   LCHARG       =      T    write CHGCAR
   LVTOT        =      F    write LOCPOT, total local potential
   LVHAR        =      F    write LOCPOT, Hartree potential only
   LELF         =      F    write electronic localiz. function (ELF)
   LORBIT       =      0    0 simple, 1 ext, 2 COOP (PROOUT), +10 PAW based schemes


 Dipole corrections
   LMONO  =      F    monopole corrections only (constant potential shift)
   LDIPOL =      F    correct potential (dipole corrections)
   IDIPOL =      0    1-x, 2-y, 3-z, 4-all directions 
   EPSILON=  1.0000000 bulk dielectric constant

 Exchange correlation treatment:
   GGA     =    --    GGA type
   LEXCH   =     8    internal setting for exchange type
   LIBXC   =     F    Libxc                    
   VOSKOWN =     0    Vosko Wilk Nusair interpolation
   LHFCALC =     F    Hartree Fock is set to
   LHFONE  =     F    Hartree Fock one center treatment
   AEXX    =    0.0000 exact exchange contribution

 Linear response parameters
   LEPSILON=     F    determine dielectric tensor
   LRPA    =     F    only Hartree local field effects (RPA)
   LNABLA  =     F    use nabla operator in PAW spheres
   LVEL    =     F    velocity operator in full k-point grid
   CSHIFT  =0.1000    complex shift for real part using Kramers Kronig
   OMEGAMAX=  -1.0    maximum frequency
   DEG_THRESHOLD= 0.2000000E-02 threshold for treating states as degnerate
   RTIME   =   -0.100 relaxation time in fs
  (WPLASMAI=    0.000 imaginary part of plasma frequency in eV, 0.658/RTIME)
   DFIELD  = 0.0000000 0.0000000 0.0000000 field for delta impulse in time

  Optional k-point grid parameters
   LKPOINTS_OPT  =     F    use optional k-point grid
   KPOINTS_OPT_MODE=     1    mode for optional k-point grid

 Orbital magnetization related:
   ORBITALMAG=     F  switch on orbital magnetization
   LCHIMAG   =     F  perturbation theory with respect to B field
   DQ        =  0.001000  dq finite difference perturbation B field
   LLRAUG    =     F  two centre corrections for induced B field



--------------------------------------------------------------------------------------------------------


 Static calculation
 charge density and potential will be updated during run
 non-spin polarized calculation
 Variant of blocked Davidson
 Davidson routine will perform the subspace rotation
 perform sub-space diagonalisation
    after iterative eigenvector-optimisation
 modified Broyden-mixing scheme, WC =      100.0
 initial mixing is a Kerker type mixing with AMIX =  0.4000 and BMIX =      1.0000
 Hartree-type preconditioning will be used
 using additional bands           41
 real space projection scheme for non local part
 use partial core corrections
 calculate Harris-corrections to forces   (improved forces if not selfconsistent)
 use gradient corrections 
 use of overlap-Matrix (Vanderbilt PP)
 Methfessel and Paxton  Order N= 1 SIGMA  =   0.03


--------------------------------------------------------------------------------------------------------


  energy-cutoff  :      400.00
  volume of cell :      627.59
      direct lattice vectors                 reciprocal lattice vectors
     9.416291215  0.000000000  0.000000000     0.106198925  0.000000000  0.000000000
     0.000000000  9.683890122  0.000000000     0.000000000  0.103264286  0.000000000
     0.000000000  0.000000000  6.882519784     0.000000000  0.000000000  0.145295623

  length of vectors
     9.416291215  9.683890122  6.882519784     0.106198925  0.103264286  0.145295623



 k-points in units of 2pi/SCALE and weight: k-points                                
   0.01327487  0.01290804  0.01816195       0.125
   0.03982460  0.01290804  0.01816195       0.125
   0.01327487  0.03872411  0.01816195       0.125
   0.03982460  0.03872411  0.01816195       0.125
   0.01327487  0.01290804  0.05448586       0.125
   0.03982460  0.01290804  0.05448586       0.125
   0.01327487  0.03872411  0.05448586       0.125
   0.03982460  0.03872411  0.05448586       0.125

 k-points in reciprocal lattice and weights: k-points                                
   0.12500000  0.12500000  0.12500000       0.125
   0.37500000  0.12500000  0.12500000       0.125
   0.12500000  0.37500000  0.12500000       0.125
   0.37500000  0.37500000  0.12500000       0.125
   0.12500000  0.12500000  0.37500000       0.125
   0.37500000  0.12500000  0.37500000       0.125
   0.12500000  0.37500000  0.37500000       0.125
   0.37500000  0.37500000  0.37500000       0.125

 position of ions in fractional coordinates (direct lattice) 
   0.12615050  0.01569722  0.38998837
   0.12615050  0.51569723  0.38998837
   0.62615052  0.01569722  0.38998837
   0.62615052  0.51569723  0.38998837
   0.12615050  0.23430279  0.61001160
   0.12615050  0.73430277  0.61001160
   0.62615052  0.23430279  0.61001160
   0.62615052  0.73430277  0.61001160
   0.12384950  0.26569723  0.11001161
   0.12384950  0.76569723  0.11001161
   0.62384948  0.26569723  0.11001161
   0.62384948  0.76569723  0.11001161
   0.12384950  0.48430277  0.88998840
   0.12384950  0.98430277  0.88998840
   0.62384948  0.48430277  0.88998840
   0.62384948  0.98430277  0.88998840
   0.37384948  0.48430277  0.61001160
   0.37384948  0.98430277  0.61001160
   0.87384948  0.48430277  0.61001160
   0.87384948  0.98430277  0.61001160
   0.37384948  0.26569723  0.38998837
   0.37384948  0.76569723  0.38998837
   0.87384948  0.26569723  0.38998837
   0.87384948  0.76569723  0.38998837
   0.37615052  0.23430279  0.88998840
   0.37615052  0.73430277  0.88998840
   0.87615052  0.23430279  0.88998840
   0.87615052  0.73430277  0.88998840
   0.37615052  0.01569722  0.11001161
   0.37615052  0.51569723  0.11001161
   0.87615052  0.01569722  0.11001161
   0.87615052  0.51569723  0.11001161
   0.05353627  0.05119550  0.65414856
   0.05353627  0.55119553  0.65414856
   0.55353624  0.05119550  0.65414856
   0.55353624  0.55119553  0.65414856
   0.05353627  0.19880450  0.34585147
   0.05353627  0.69880447  0.34585147
   0.55353624  0.19880450  0.34585147
   0.55353624  0.69880447  0.34585147
   0.19646373  0.30119550  0.84585144
   0.19646373  0.80119553  0.84585144
   0.69646370  0.30119550  0.84585144
   0.69646370  0.80119553  0.84585144
   0.19646373  0.44880450  0.15414852
   0.19646373  0.94880447  0.15414852
   0.69646370  0.44880450  0.15414852
   0.69646370  0.94880447  0.15414852
   0.44646376  0.44880450  0.34585147
   0.44646376  0.94880447  0.34585147
   0.94646376  0.44880450  0.34585147
   0.94646376  0.94880447  0.34585147
   0.44646376  0.30119550  0.65414856
   0.44646376  0.80119553  0.65414856
   0.94646376  0.30119550  0.65414856
   0.94646376  0.80119553  0.65414856
   0.30353624  0.19880450  0.15414852
   0.30353624  0.69880447  0.15414852
   0.80353624  0.19880450  0.15414852
   0.80353624  0.69880447  0.15414852
   0.30353624  0.05119550  0.84585144
   0.30353624  0.55119553  0.84585144
   0.80353624  0.05119550  0.84585144
   0.80353624  0.55119553  0.84585144
   0.02509402  0.12500000  0.00000000
   0.02509402  0.62500000  0.00000000
   0.52509405  0.12500000  0.00000000
   0.52509405  0.62500000  0.00000000
   0.22490598  0.37500000  0.50000000
   0.22490598  0.87500000  0.50000000
   0.72490601  0.37500000  0.50000000
   0.72490601  0.87500000  0.50000000
   0.47490595  0.37500000  0.00000000
   0.47490595  0.87500000  0.00000000
   0.97490595  0.37500000  0.00000000
   0.97490595  0.87500000  0.00000000
   0.27509405  0.12500000  0.50000000
   0.27509405  0.62500000  0.50000000
   0.77509405  0.12500000  0.50000000
   0.77509405  0.62500000  0.50000000

 position of ions in cartesian coordinates  (Angst):
   1.18786989  0.15201012  2.68410266
   1.18786989  4.99395529  2.68410266
   5.89601564  0.15201012  2.68410266
   5.89601564  4.99395529  2.68410266
   1.18786989  2.26896245  4.19841692
   1.18786989  7.11090736  4.19841692
   5.89601564  2.26896245  4.19841692
   5.89601564  7.11090736  4.19841692
   1.16620291  2.57298276  0.75715708
   1.16620291  7.41492782  0.75715708
   5.87434838  2.57298276  0.75715708
   5.87434838  7.41492782  0.75715708
   1.16620291  4.68993483  6.12536276
   1.16620291  9.53187989  6.12536276
   5.87434838  4.68993483  6.12536276
   5.87434838  9.53187989  6.12536276
   3.52027558  4.68993483  4.19841692
   3.52027558  9.53187989  4.19841692
   8.22842118  4.68993483  4.19841692
   8.22842118  9.53187989  4.19841692
   3.52027558  2.57298276  2.68410266
   3.52027558  7.41492782  2.68410266
   8.22842118  2.57298276  2.68410266
   8.22842118  7.41492782  2.68410266
   3.54194283  2.26896245  6.12536276
   3.54194283  7.11090736  6.12536276
   8.25008844  2.26896245  6.12536276
   8.25008844  7.11090736  6.12536276
   3.54194283  0.15201012  0.75715708
   3.54194283  4.99395529  0.75715708
   8.25008844  0.15201012  0.75715708
   8.25008844  4.99395529  0.75715708
   0.50411306  0.49577159  4.50219041
   0.50411306  5.33771694  4.50219041
   5.21225846  0.49577159  4.50219041
   5.21225846  5.33771694  4.50219041
   0.50411306  1.92520094  2.38032958
   0.50411306  6.76714571  2.38032958
   5.21225846  1.92520094  2.38032958
   5.21225846  6.76714571  2.38032958
   1.84995967  2.91674412  5.82158926
   1.84995967  7.75868947  5.82158926
   6.55810500  2.91674412  5.82158926
   6.55810500  7.75868947  5.82158926
   1.84995967  4.34617347  1.06093021
   1.84995967  9.18811824  1.06093021
   6.55810500  4.34617347  1.06093021
   6.55810500  9.18811824  1.06093021
   4.20403275  4.34617347  2.38032958
   4.20403275  9.18811824  2.38032958
   8.91217836  4.34617347  2.38032958
   8.91217836  9.18811824  2.38032958
   4.20403275  2.91674412  4.50219041
   4.20403275  7.75868947  4.50219041
   8.91217836  2.91674412  4.50219041
   8.91217836  7.75868947  4.50219041
   2.85818566  1.92520094  1.06093021
   2.85818566  6.76714571  1.06093021
   7.56633127  1.92520094  1.06093021
   7.56633127  6.76714571  1.06093021
   2.85818566  0.49577159  5.82158926
   2.85818566  5.33771694  5.82158926
   7.56633127  0.49577159  5.82158926
   7.56633127  5.33771694  5.82158926
   0.23629263  1.21048627  0.00000000
   0.23629263  6.05243133  0.00000000
   4.94443849  1.21048627  0.00000000
   4.94443849  6.05243133  0.00000000
   2.11778020  3.63145880  3.44125989
   2.11778020  8.47340386  3.44125989
   6.82592609  3.63145880  3.44125989
   6.82592609  8.47340386  3.44125989
   4.47185273  3.63145880  0.00000000
   4.47185273  8.47340386  0.00000000
   9.17999833  3.63145880  0.00000000
   9.17999833  8.47340386  0.00000000
   2.59036568  1.21048627  3.44125989
   2.59036568  6.05243133  3.44125989
   7.29851129  1.21048627  3.44125989
   7.29851129  6.05243133  3.44125989



--------------------------------------------------------------------------------------------------------


 k-point   1 :   0.1250 0.1250 0.1250  plane waves:   11402
 k-point   2 :   0.3750 0.1250 0.1250  plane waves:   11396
 k-point   3 :   0.1250 0.3750 0.1250  plane waves:   11401
 k-point   4 :   0.3750 0.3750 0.1250  plane waves:   11396
 k-point   5 :   0.1250 0.1250 0.3750  plane waves:   11401
 k-point   6 :   0.3750 0.1250 0.3750  plane waves:   11395
 k-point   7 :   0.1250 0.3750 0.3750  plane waves:   11427
 k-point   8 :   0.3750 0.3750 0.3750  plane waves:   11404

 maximum and minimum number of plane-waves per node :     11427    11395

 maximum number of plane-waves:     11427
 maximum index in each direction: 
   IXMAX=   15   IYMAX=   15   IZMAX=   11
   IXMIN=  -15   IYMIN=  -16   IZMIN=  -11


 serial   3D FFT for wavefunctions
 parallel 3D FFT for charge:
    minimum data exchange during FFTs selected (reduces bandwidth)


 total amount of memory used by VASP MPI-rank0   463617. kBytes
=======================================================================

   base      :      30000. kBytes
   nonlr-proj:       9020. kBytes
   fftplans  :      23216. kBytes
   grid      :      41250. kBytes
   one-center:        245. kBytes
   wavefun   :     359886. kBytes

     INWAV:  cpu time      0.0001: real time      0.0003
 Broyden mixing: mesh for mixing (old mesh)
   NGX = 31   NGY = 31   NGZ = 23
  (NGX  = 96   NGY  = 96   NGZ  = 72)
  gives a total of  22103 points

 initial charge density was supplied:
 charge density of overlapping atoms calculated
 number of electron     384.0000000 magnetization 
 keeping initial charge density in first step


--------------------------------------------------------------------------------------------------------


 Maximum index for non-local projection operator         1423
 Maximum index for augmentation-charges         4993 (set IRDMAX)


--------------------------------------------------------------------------------------------------------


 First call to EWALD:  gamma=   0.207
 Maximum number of real-space cells 3x 2x 3
 Maximum number of reciprocal cells 3x 3x 2

    FEWALD:  cpu time      0.0724: real time      0.0726


--------------------------------------- Iteration      1(   1)  ---------------------------------------


    POTLOK:  cpu time      0.3005: real time      0.3020
    SETDIJ:  cpu time      0.0796: real time      0.0799
     EDDAV:  cpu time     54.3581: real time     54.7556
       DOS:  cpu time      0.0024: real time      0.0028
    --------------------------------------------
      LOOP:  cpu time     54.7406: real time     55.1403

 eigenvalue-minimisations  :  3728
 total energy-change (2. order) : 0.1884060E+04  (-0.1788683E+05)
 number of electron     384.0000000 magnetization 
 augmentation part      384.0000000 magnetization 

 Free energy of the ion-electron system (eV)
  ---------------------------------------------------
  alpha Z        PSCENC =       658.24706173
  Ewald energy   TEWEN  =    -19883.30855862
  -Hartree energ DENC   =     -4766.20983000
  -exchange      EXHF   =         0.00000000
  -V(xc)+E(xc)   XCENC  =       545.75689512
  PAW double counting   =     18752.77991877   -17816.57094691
  entropy T*S    EENTRO =         0.00013396
  eigenvalues    EBANDS =      1931.51102256
  atomic energy  EATOM  =     22461.85434800
  Solvation  Ediel_sol  =         0.00000000
  ---------------------------------------------------
  free energy    TOTEN  =      1884.06004460 eV

  energy without entropy =     1884.05991064  energy(sigma->0) =     1884.05999995


--------------------------------------------------------------------------------------------------------




--------------------------------------- Iteration      1(   2)  ---------------------------------------


     EDDAV:  cpu time     71.9538: real time     72.4537
       DOS:  cpu time      0.0024: real time      0.0027
    --------------------------------------------
      LOOP:  cpu time     71.9561: real time     72.4564

 eigenvalue-minimisations  :  4384
 total energy-change (2. order) :-0.2417908E+04  (-0.2366542E+04)
 number of electron     384.0000000 magnetization 
 augmentation part      384.0000000 magnetization 

 Free energy of the ion-electron system (eV)
  ---------------------------------------------------
  alpha Z        PSCENC =       658.24706173
  Ewald energy   TEWEN  =    -19883.30855862
  -Hartree energ DENC   =     -4766.20983000
  -exchange      EXHF   =         0.00000000
  -V(xc)+E(xc)   XCENC  =       545.75689512
  PAW double counting   =     18752.77991877   -17816.57094691
  entropy T*S    EENTRO =         0.00018857
  eigenvalues    EBANDS =      -486.39736893
  atomic energy  EATOM  =     22461.85434800
  Solvation  Ediel_sol  =         0.00000000
  ---------------------------------------------------
  free energy    TOTEN  =      -533.84829228 eV

  energy without entropy =     -533.84848085  energy(sigma->0) =     -533.84835514


--------------------------------------------------------------------------------------------------------




--------------------------------------- Iteration      1(   3)  ---------------------------------------


     EDDAV:  cpu time     72.3004: real time     72.9262
       DOS:  cpu time      0.0026: real time      0.0030
    --------------------------------------------
      LOOP:  cpu time     72.3030: real time     72.9291

 eigenvalue-minimisations  :  4360
 total energy-change (2. order) :-0.1186656E+03  (-0.1181908E+03)
 number of electron     384.0000000 magnetization 
 augmentation part      384.0000000 magnetization 

 Free energy of the ion-electron system (eV)
  ---------------------------------------------------
  alpha Z        PSCENC =       658.24706173
  Ewald energy   TEWEN  =    -19883.30855862
  -Hartree energ DENC   =     -4766.20983000
  -exchange      EXHF   =         0.00000000
  -V(xc)+E(xc)   XCENC  =       545.75689512
  PAW double counting   =     18752.77991877   -17816.57094691
  entropy T*S    EENTRO =         0.00115595
  eigenvalues    EBANDS =      -605.06396401
  atomic energy  EATOM  =     22461.85434800
  Solvation  Ediel_sol  =         0.00000000
  ---------------------------------------------------
  free energy    TOTEN  =      -652.51391998 eV

  energy without entropy =     -652.51507592  energy(sigma->0) =     -652.51430529


--------------------------------------------------------------------------------------------------------




--------------------------------------- Iteration      1(   4)  ---------------------------------------


     EDDAV:  cpu time     71.6175: real time     72.1870
       DOS:  cpu time      0.0026: real time      0.0029
    --------------------------------------------
      LOOP:  cpu time     71.6201: real time     72.1899

 eigenvalue-minimisations  :  4328
 total energy-change (2. order) :-0.1294041E+01  (-0.1290156E+01)
 number of electron     384.0000000 magnetization 
 augmentation part      384.0000000 magnetization 

 Free energy of the ion-electron system (eV)
  ---------------------------------------------------
  alpha Z        PSCENC =       658.24706173
  Ewald energy   TEWEN  =    -19883.30855862
  -Hartree energ DENC   =     -4766.20983000
  -exchange      EXHF   =         0.00000000
  -V(xc)+E(xc)   XCENC  =       545.75689512
  PAW double counting   =     18752.77991877   -17816.57094691
  entropy T*S    EENTRO =         0.00105881
  eigenvalues    EBANDS =      -606.35790810
  atomic energy  EATOM  =     22461.85434800
  Solvation  Ediel_sol  =         0.00000000
  ---------------------------------------------------
  free energy    TOTEN  =      -653.80796121 eV

  energy without entropy =     -653.80902002  energy(sigma->0) =     -653.80831414


--------------------------------------------------------------------------------------------------------




--------------------------------------- Iteration      1(   5)  ---------------------------------------


     EDDAV:  cpu time     71.2050: real time     71.7158
       DOS:  cpu time      0.0026: real time      0.0030
    CHARGE:  cpu time      1.5838: real time      1.6034
    MIXING:  cpu time      0.0123: real time      0.0124
    --------------------------------------------
      LOOP:  cpu time     72.8039: real time     73.3346

 eigenvalue-minimisations  :  4336
 total energy-change (2. order) :-0.2330361E-01  (-0.2327406E-01)
 number of electron     384.0001382 magnetization 
 augmentation part       37.7209553 magnetization 

 Broyden mixing:
  rms(total) = 0.50257E+01    rms(broyden)= 0.50236E+01
  rms(prec ) = 0.66024E+01
  weight for this iteration     100.00

 Free energy of the ion-electron system (eV)
  ---------------------------------------------------
  alpha Z        PSCENC =       658.24706173
  Ewald energy   TEWEN  =    -19883.30855862
  -Hartree energ DENC   =     -4766.20983000
  -exchange      EXHF   =         0.00000000
  -V(xc)+E(xc)   XCENC  =       545.75689512
  PAW double counting   =     18752.77991877   -17816.57094691
  entropy T*S    EENTRO =         0.00105609
  eigenvalues    EBANDS =      -606.38120898
  atomic energy  EATOM  =     22461.85434800
  Solvation  Ediel_sol  =         0.00000000
  ---------------------------------------------------
  free energy    TOTEN  =      -653.83126481 eV

  energy without entropy =     -653.83232090  energy(sigma->0) =     -653.83161684


--------------------------------------------------------------------------------------------------------




--------------------------------------- Iteration      1(   6)  ---------------------------------------


    POTLOK:  cpu time      0.3523: real time      0.3679
    SETDIJ:  cpu time      0.0803: real time      0.0806
     EDDAV:  cpu time     73.4695: real time     74.0128
       DOS:  cpu time      0.0024: real time      0.0027
    CHARGE:  cpu time      1.5717: real time      1.5831
    MIXING:  cpu time      0.0134: real time      0.0134
    --------------------------------------------
      LOOP:  cpu time     75.4896: real time     76.0605

 eigenvalue-minimisations  :  4160
 total energy-change (2. order) : 0.6584652E+02  (-0.2703511E+02)
 number of electron     384.0001188 magnetization 
 augmentation part       32.2140883 magnetization 

 Broyden mixing:
  rms(total) = 0.17560E+01    rms(broyden)= 0.17535E+01
  rms(prec ) = 0.19623E+01
  weight for this iteration     100.00

 eigenvalues of (default mixing * dielectric matrix)
  average eigenvalue GAMMA=   0.9992
  0.9992

 Free energy of the ion-electron system (eV)
  ---------------------------------------------------
  alpha Z        PSCENC =       658.24706173
  Ewald energy   TEWEN  =    -19883.30855862
  -Hartree energ DENC   =     -5503.10618214
  -exchange      EXHF   =         0.00000000
  -V(xc)+E(xc)   XCENC  =       598.35037178
  PAW double counting   =     24741.70888826   -23820.57024647
  entropy T*S    EENTRO =         0.00060050
  eigenvalues    EBANDS =       158.83897131
  atomic energy  EATOM  =     22461.85434800
  Solvation  Ediel_sol  =         0.00000000
  ---------------------------------------------------
  free energy    TOTEN  =      -587.98474565 eV

  energy without entropy =     -587.98534615  energy(sigma->0) =     -587.98494582


--------------------------------------------------------------------------------------------------------




--------------------------------------- Iteration      1(   7)  ---------------------------------------


    POTLOK:  cpu time      0.3399: real time      0.3419
    SETDIJ:  cpu time      0.0794: real time      0.0797
     EDDAV:  cpu time     77.6541: real time     78.1775
       DOS:  cpu time      0.0024: real time      0.0026
    CHARGE:  cpu time      1.5734: real time      1.5834
    MIXING:  cpu time      0.0148: real time      0.0149
    --------------------------------------------
      LOOP:  cpu time     79.6639: real time     80.1999

 eigenvalue-minimisations  :  4488
 total energy-change (2. order) : 0.1680203E+00  (-0.7140440E+00)
 number of electron     384.0001178 magnetization 
 augmentation part       31.6974608 magnetization 

 Broyden mixing:
  rms(total) = 0.95335E+00    rms(broyden)= 0.95308E+00
  rms(prec ) = 0.10706E+01
  weight for this iteration     100.00

 eigenvalues of (default mixing * dielectric matrix)
  average eigenvalue GAMMA=   1.3330
  1.2559  1.4101

 Free energy of the ion-electron system (eV)
  ---------------------------------------------------
  alpha Z        PSCENC =       658.24706173
  Ewald energy   TEWEN  =    -19883.30855862
  -Hartree energ DENC   =     -5589.34366070
  -exchange      EXHF   =         0.00000000
  -V(xc)+E(xc)   XCENC  =       605.58609052
  PAW double counting   =     29653.48543519   -28732.48612532
  entropy T*S    EENTRO =         0.00054843
  eigenvalues    EBANDS =       238.14813545
  atomic energy  EATOM  =     22461.85434800
  Solvation  Ediel_sol  =         0.00000000
  ---------------------------------------------------
  free energy    TOTEN  =      -587.81672532 eV

  energy without entropy =     -587.81727375  energy(sigma->0) =     -587.81690813


--------------------------------------------------------------------------------------------------------




--------------------------------------- Iteration      1(   8)  ---------------------------------------


    POTLOK:  cpu time      0.3428: real time      0.3451
    SETDIJ:  cpu time      0.0798: real time      0.0801
     EDDAV:  cpu time     76.2303: real time     76.7329
       DOS:  cpu time      0.0025: real time      0.0028
    CHARGE:  cpu time      1.5666: real time      1.5768
    MIXING:  cpu time      0.0165: real time      0.0166
    --------------------------------------------
      LOOP:  cpu time     78.2385: real time     78.7542

 eigenvalue-minimisations  :  4304
 total energy-change (2. order) :-0.2781051E-01  (-0.4811279E-01)
 number of electron     384.0001181 magnetization 
 augmentation part       31.8152335 magnetization 

 Broyden mixing:
  rms(total) = 0.28697E+00    rms(broyden)= 0.28696E+00
  rms(prec ) = 0.33980E+00
  weight for this iteration     100.00

 eigenvalues of (default mixing * dielectric matrix)
  average eigenvalue GAMMA=   1.5727
  2.5353  1.0914  1.0914

 Free energy of the ion-electron system (eV)
  ---------------------------------------------------
  alpha Z        PSCENC =       658.24706173
  Ewald energy   TEWEN  =    -19883.30855862
  -Hartree energ DENC   =     -5608.34956225
  -exchange      EXHF   =         0.00000000
  -V(xc)+E(xc)   XCENC  =       608.38830990
  PAW double counting   =     33448.99450246   -32527.49434409
  entropy T*S    EENTRO =         0.00057194
  eigenvalues    EBANDS =       253.82313510
  atomic energy  EATOM  =     22461.85434800
  Solvation  Ediel_sol  =         0.00000000
  ---------------------------------------------------
  free energy    TOTEN  =      -587.84453583 eV

  energy without entropy =     -587.84510777  energy(sigma->0) =     -587.84472647


--------------------------------------------------------------------------------------------------------




--------------------------------------- Iteration      1(   9)  ---------------------------------------


    POTLOK:  cpu time      0.3440: real time      0.3462
    SETDIJ:  cpu time      0.0796: real time      0.0799
     EDDAV:  cpu time     76.4245: real time     76.9566
       DOS:  cpu time      0.0026: real time      0.0029
    CHARGE:  cpu time      1.5642: real time      1.5743
    MIXING:  cpu time      0.0157: real time      0.0157
    --------------------------------------------
      LOOP:  cpu time     78.4305: real time     78.9757

 eigenvalue-minimisations  :  4296
 total energy-change (2. order) :-0.4165247E-01  (-0.1707785E-01)
 number of electron     384.0001178 magnetization 
 augmentation part       31.7295430 magnetization 

 Broyden mixing:
  rms(total) = 0.73505E-01    rms(broyden)= 0.73477E-01
  rms(prec ) = 0.76217E-01
  weight for this iteration     100.00

 eigenvalues of (default mixing * dielectric matrix)
  average eigenvalue GAMMA=   1.7512
  1.0399  1.0399  2.4625  2.4625

 Free energy of the ion-electron system (eV)
  ---------------------------------------------------
  alpha Z        PSCENC =       658.24706173
  Ewald energy   TEWEN  =    -19883.30855862
  -Hartree energ DENC   =     -5639.68699109
  -exchange      EXHF   =         0.00000000
  -V(xc)+E(xc)   XCENC  =       611.47752989
  PAW double counting   =     35156.92187918   -34235.64194972
  entropy T*S    EENTRO =         0.00057095
  eigenvalues    EBANDS =       282.24992139
  atomic energy  EATOM  =     22461.85434800
  Solvation  Ediel_sol  =         0.00000000
  ---------------------------------------------------
  free energy    TOTEN  =      -587.88618830 eV

  energy without entropy =     -587.88675924  energy(sigma->0) =     -587.88637861


--------------------------------------------------------------------------------------------------------




--------------------------------------- Iteration      1(  10)  ---------------------------------------


    POTLOK:  cpu time      0.3416: real time      0.3440
    SETDIJ:  cpu time      0.0794: real time      0.0797
     EDDAV:  cpu time     77.1852: real time     77.7731
       DOS:  cpu time      0.0025: real time      0.0029
    CHARGE:  cpu time      1.6304: real time      1.6403
    MIXING:  cpu time      0.0180: real time      0.0181
    --------------------------------------------
      LOOP:  cpu time     79.2573: real time     79.8582

 eigenvalue-minimisations  :  4344
 total energy-change (2. order) :-0.5753340E-02  (-0.2751367E-02)
 number of electron     384.0001179 magnetization 
 augmentation part       31.7205778 magnetization 

 Broyden mixing:
  rms(total) = 0.30749E-01    rms(broyden)= 0.30722E-01
  rms(prec ) = 0.37415E-01
  weight for this iteration     100.00

 eigenvalues of (default mixing * dielectric matrix)
  average eigenvalue GAMMA=   1.5333
  2.6197  2.2735  1.0125  1.0125  0.7484

 Free energy of the ion-electron system (eV)
  ---------------------------------------------------
  alpha Z        PSCENC =       658.24706173
  Ewald energy   TEWEN  =    -19883.30855862
  -Hartree energ DENC   =     -5640.71822296
  -exchange      EXHF   =         0.00000000
  -V(xc)+E(xc)   XCENC  =       611.61010954
  PAW double counting   =     34649.68946359   -33728.42312065
  entropy T*S    EENTRO =         0.00055775
  eigenvalues    EBANDS =       283.15641998
  atomic energy  EATOM  =     22461.85434800
  Solvation  Ediel_sol  =         0.00000000
  ---------------------------------------------------
  free energy    TOTEN  =      -587.89194164 eV

  energy without entropy =     -587.89249938  energy(sigma->0) =     -587.89212755


--------------------------------------------------------------------------------------------------------




--------------------------------------- Iteration      1(  11)  ---------------------------------------


    POTLOK:  cpu time      0.3667: real time      0.3691
    SETDIJ:  cpu time      0.0794: real time      0.0797
     EDDAV:  cpu time     74.9250: real time     75.5570
       DOS:  cpu time      0.0022: real time      0.0026
    CHARGE:  cpu time      1.4605: real time      1.4692
    MIXING:  cpu time      0.0174: real time      0.0175
    --------------------------------------------
      LOOP:  cpu time     76.8511: real time     77.4949

 eigenvalue-minimisations  :  4528
 total energy-change (2. order) : 0.1238892E-02  (-0.5712608E-03)
 number of electron     384.0001179 magnetization 
 augmentation part       31.7288040 magnetization 

 Broyden mixing:
  rms(total) = 0.20004E-01    rms(broyden)= 0.20002E-01
  rms(prec ) = 0.22032E-01
  weight for this iteration     100.00

 eigenvalues of (default mixing * dielectric matrix)
  average eigenvalue GAMMA=   1.5674
  2.8247  2.5017  1.0362  1.0362  1.0030  1.0030

 Free energy of the ion-electron system (eV)
  ---------------------------------------------------
  alpha Z        PSCENC =       658.24706173
  Ewald energy   TEWEN  =    -19883.30855862
  -Hartree energ DENC   =     -5640.30260643
  -exchange      EXHF   =         0.00000000
  -V(xc)+E(xc)   XCENC  =       611.59166145
  PAW double counting   =     34671.82947397   -33750.54693263
  entropy T*S    EENTRO =         0.00056486
  eigenvalues    EBANDS =       282.74428494
  atomic energy  EATOM  =     22461.85434800
  Solvation  Ediel_sol  =         0.00000000
  ---------------------------------------------------
  free energy    TOTEN  =      -587.89070274 eV

  energy without entropy =     -587.89126760  energy(sigma->0) =     -587.89089103


--------------------------------------------------------------------------------------------------------




--------------------------------------- Iteration      1(  12)  ---------------------------------------


    POTLOK:  cpu time      0.3945: real time      0.3970
    SETDIJ:  cpu time      0.0794: real time      0.0798
     EDDAV:  cpu time     71.5220: real time     72.1285
       DOS:  cpu time      0.0023: real time      0.0027
    CHARGE:  cpu time      1.4140: real time      1.4234
    MIXING:  cpu time      0.0176: real time      0.0177
    --------------------------------------------
      LOOP:  cpu time     73.4299: real time     74.0491

 eigenvalue-minimisations  :  4280
 total energy-change (2. order) :-0.3050963E-04  (-0.2685870E-03)
 number of electron     384.0001179 magnetization 
 augmentation part       31.7322610 magnetization 

 Broyden mixing:
  rms(total) = 0.31109E-02    rms(broyden)= 0.30767E-02
  rms(prec ) = 0.37767E-02
  weight for this iteration     100.00

 eigenvalues of (default mixing * dielectric matrix)
  average eigenvalue GAMMA=   1.5103
  2.8248  2.4619  1.1774  1.0672  1.0672  0.9867  0.9867

 Free energy of the ion-electron system (eV)
  ---------------------------------------------------
  alpha Z        PSCENC =       658.24706173
  Ewald energy   TEWEN  =    -19883.30855862
  -Hartree energ DENC   =     -5640.08906589
  -exchange      EXHF   =         0.00000000
  -V(xc)+E(xc)   XCENC  =       611.58293648
  PAW double counting   =     34560.16979791   -33638.88764010
  entropy T*S    EENTRO =         0.00056782
  eigenvalues    EBANDS =       282.53981942
  atomic energy  EATOM  =     22461.85434800
  Solvation  Ediel_sol  =         0.00000000
  ---------------------------------------------------
  free energy    TOTEN  =      -587.89073325 eV

  energy without entropy =     -587.89130108  energy(sigma->0) =     -587.89092253


--------------------------------------------------------------------------------------------------------




--------------------------------------- Iteration      1(  13)  ---------------------------------------


    POTLOK:  cpu time      0.3897: real time      0.3920
    SETDIJ:  cpu time      0.0794: real time      0.0797
     EDDAV:  cpu time     72.0813: real time     72.5908
       DOS:  cpu time      0.0024: real time      0.0027
    CHARGE:  cpu time      1.4072: real time      1.4163
    MIXING:  cpu time      0.0192: real time      0.0193
    --------------------------------------------
      LOOP:  cpu time     73.9790: real time     74.5008

 eigenvalue-minimisations  :  4296
 total energy-change (2. order) : 0.5842754E-05  (-0.1949534E-04)
 number of electron     384.0001179 magnetization 
 augmentation part       31.7340926 magnetization 

 Broyden mixing:
  rms(total) = 0.17056E-02    rms(broyden)= 0.17045E-02
  rms(prec ) = 0.18856E-02
  weight for this iteration     100.00

 eigenvalues of (default mixing * dielectric matrix)
  average eigenvalue GAMMA=   1.5015
  2.8389  2.4488  1.8138  0.9972  0.9972  1.0513  1.0513  0.8137

 Free energy of the ion-electron system (eV)
  ---------------------------------------------------
  alpha Z        PSCENC =       658.24706173
  Ewald energy   TEWEN  =    -19883.30855862
  -Hartree energ DENC   =     -5639.81474988
  -exchange      EXHF   =         0.00000000
  -V(xc)+E(xc)   XCENC  =       611.56220466
  PAW double counting   =     34559.96385506   -33638.67415171
  entropy T*S    EENTRO =         0.00056727
  eigenvalues    EBANDS =       282.27869608
  atomic energy  EATOM  =     22461.85434800
  Solvation  Ediel_sol  =         0.00000000
  ---------------------------------------------------
  free energy    TOTEN  =      -587.89072741 eV

  energy without entropy =     -587.89129468  energy(sigma->0) =     -587.89091650


--------------------------------------------------------------------------------------------------------




--------------------------------------- Iteration      1(  14)  ---------------------------------------


    POTLOK:  cpu time      0.3900: real time      0.3925
    SETDIJ:  cpu time      0.0799: real time      0.0802
     EDDAV:  cpu time     73.0833: real time     73.5823
       DOS:  cpu time      0.0023: real time      0.0026
    CHARGE:  cpu time      1.4317: real time      1.4404
    MIXING:  cpu time      0.0206: real time      0.0207
    --------------------------------------------
      LOOP:  cpu time     75.0078: real time     75.5188

 eigenvalue-minimisations  :  4376
 total energy-change (2. order) : 0.7727540E-06  (-0.1807330E-05)
 number of electron     384.0001179 magnetization 
 augmentation part       31.7341630 magnetization 

 Broyden mixing:
  rms(total) = 0.66191E-03    rms(broyden)= 0.66142E-03
  rms(prec ) = 0.72369E-03
  weight for this iteration     100.00

 eigenvalues of (default mixing * dielectric matrix)
  average eigenvalue GAMMA=   1.5167
  2.8843  2.5072  2.1732  1.0028  1.0028  0.9933  0.9933  1.0469  1.0469

 Free energy of the ion-electron system (eV)
  ---------------------------------------------------
  alpha Z        PSCENC =       658.24706173
  Ewald energy   TEWEN  =    -19883.30855862
  -Hartree energ DENC   =     -5639.81408698
  -exchange      EXHF   =         0.00000000
  -V(xc)+E(xc)   XCENC  =       611.56019801
  PAW double counting   =     34554.39462997   -33633.10329197
  entropy T*S    EENTRO =         0.00056710
  eigenvalues    EBANDS =       282.27840612
  atomic energy  EATOM  =     22461.85434800
  Solvation  Ediel_sol  =         0.00000000
  ---------------------------------------------------
  free energy    TOTEN  =      -587.89072664 eV

  energy without entropy =     -587.89129374  energy(sigma->0) =     -587.89091567


--------------------------------------------------------------------------------------------------------




--------------------------------------- Iteration      1(  15)  ---------------------------------------


    POTLOK:  cpu time      0.3959: real time      0.3984
    SETDIJ:  cpu time      0.0797: real time      0.0800
     EDDAV:  cpu time     47.9125: real time     48.2514
       DOS:  cpu time      0.0028: real time      0.0031
    --------------------------------------------
      LOOP:  cpu time     48.3910: real time     48.7329

 eigenvalue-minimisations  :  2504
 total energy-change (2. order) : 0.4310750E-06  (-0.1925468E-06)
 number of electron     384.0001179 magnetization 
 augmentation part       31.7341630 magnetization 

 Free energy of the ion-electron system (eV)
  ---------------------------------------------------
  alpha Z        PSCENC =       658.24706173
  Ewald energy   TEWEN  =    -19883.30855862
  -Hartree energ DENC   =     -5639.86525706
  -exchange      EXHF   =         0.00000000
  -V(xc)+E(xc)   XCENC  =       611.56274832
  PAW double counting   =     34551.73360136   -33630.44174388
  entropy T*S    EENTRO =         0.00056709
  eigenvalues    EBANDS =       282.32650687
  atomic energy  EATOM  =     22461.85434800
  Solvation  Ediel_sol  =         0.00000000
  ---------------------------------------------------
  free energy    TOTEN  =      -587.89072621 eV

  energy without entropy =     -587.89129330  energy(sigma->0) =     -587.89091524


--------------------------------------------------------------------------------------------------------




 average (electrostatic) potential at core
  the test charge radii are     1.0406  0.7215
  (the norm of the test charge is              1.0000)
       1 -70.2164       2 -70.2164       3 -70.2164       4 -70.2164       5 -70.2164
       6 -70.2164       7 -70.2164       8 -70.2164       9 -70.2164      10 -70.2164
      11 -70.2164      12 -70.2164      13 -70.2164      14 -70.2164      15 -70.2164
      16 -70.2164      17 -70.2164      18 -70.2164      19 -70.2164      20 -70.2164
      21 -70.2164      22 -70.2164      23 -70.2164      24 -70.2164      25 -70.2164
      26 -70.2164      27 -70.2164      28 -70.2164      29 -70.2164      30 -70.2164
      31 -70.2164      32 -70.2164      33 -66.0554      34 -66.0554      35 -66.0554
      36 -66.0554      37 -66.0554      38 -66.0554      39 -66.0554      40 -66.0554
      41 -66.0554      42 -66.0554      43 -66.0554      44 -66.0554      45 -66.0554
      46 -66.0554      47 -66.0554      48 -66.0554      49 -66.0554      50 -66.0554
      51 -66.0554      52 -66.0554      53 -66.0554      54 -66.0554      55 -66.0554
      56 -66.0554      57 -66.0554      58 -66.0554      59 -66.0554      60 -66.0554
      61 -66.0554      62 -66.0554      63 -66.0554      64 -66.0554      65 -65.9001
      66 -65.9001      67 -65.9001      68 -65.9001      69 -65.9001      70 -65.9001
      71 -65.9001      72 -65.9001      73 -65.9001      74 -65.9001      75 -65.9001
      76 -65.9001      77 -65.9001      78 -65.9001      79 -65.9001      80 -65.9001



 E-fermi :   7.3360     XC(G=0): -12.1621     alpha+bet :-18.2430

 Fermi energy:         7.3359729111

 k-point     1 :       0.1250    0.1250    0.1250
  band No.  band energies     occupation 
      1     -12.4824      2.00000
      2     -11.8228      2.00000
      3     -11.7940      2.00000
      4     -11.4270      2.00000
      5     -11.3898      2.00000
      6     -11.3624      2.00000
      7     -11.2140      2.00000
      8     -10.8849      2.00000
      9     -10.8719      2.00000
     10     -10.8063      2.00000
     11     -10.7972      2.00000
     12     -10.6270      2.00000
     13     -10.5334      2.00000
     14     -10.4755      2.00000
     15     -10.3499      2.00000
     16     -10.2203      2.00000
     17     -10.2136      2.00000
     18     -10.1122      2.00000
     19     -10.0690      2.00000
     20     -10.0462      2.00000
     21     -10.0053      2.00000
     22      -9.9986      2.00000
     23      -9.9349      2.00000
     24      -9.8564      2.00000
     25      -9.8516      2.00000
     26      -9.8458      2.00000
     27      -9.8029      2.00000
     28      -9.7216      2.00000
     29      -9.6738      2.00000
     30      -9.5764      2.00000
     31      -9.5552      2.00000
     32      -9.5493      2.00000
     33      -9.4276      2.00000
     34      -9.3943      2.00000
     35      -9.3785      2.00000
     36      -9.3688      2.00000
     37      -9.3428      2.00000
     38      -9.3364      2.00000
     39      -9.3354      2.00000
     40      -9.3147      2.00000
     41      -9.2486      2.00000
     42      -9.2304      2.00000
     43      -9.2240      2.00000
     44      -9.1931      2.00000
     45      -9.1142      2.00000
     46      -9.0538      2.00000
     47      -8.9747      2.00000
     48      -8.9475      2.00000
     49       0.5142      2.00000
     50       0.5934      2.00000
     51       0.6249      2.00000
     52       0.6691      2.00000
     53       0.7151      2.00000
     54       0.7843      2.00000
     55       0.7927      2.00000
     56       0.9615      2.00000
     57       1.0237      2.00000
     58       1.0281      2.00000
     59       1.0406      2.00000
     60       1.0782      2.00000
     61       1.1599      2.00000
     62       1.1896      2.00000
     63       1.2378      2.00000
     64       1.2673      2.00000
     65       1.2928      2.00000
     66       1.4156      2.00000
     67       1.6228      2.00000
     68       1.6969      2.00000
     69       1.7464      2.00000
     70       1.7770      2.00000
     71       1.7943      2.00000
     72       1.8788      2.00000
     73       1.9449      2.00000
     74       2.0054      2.00000
     75       2.0539      2.00000
     76       2.1556      2.00000
     77       2.2264      2.00000
     78       2.2692      2.00000
     79       2.3785      2.00000
     80       2.3808      2.00000
     81       2.3963      2.00000
     82       2.4249      2.00000
     83       2.4464      2.00000
     84       2.4853      2.00000
     85       2.6093      2.00000
     86       2.6478      2.00000
     87       2.6783      2.00000
     88       2.6960      2.00000
     89       2.7418      2.00000
     90       2.7468      2.00000
     91       2.7649      2.00000
     92       2.7789      2.00000
     93       2.8570      2.00000
     94       3.0030      2.00000
     95       3.1802      2.00000
     96       3.2738      2.00000
     97       3.2824      2.00000
     98       3.4223      2.00000
     99       3.4633      2.00000
    100       3.5197      2.00000
    101       3.6644      2.00000
    102       3.6773      2.00000
    103       3.7049      2.00000
    104       3.7148      2.00000
    105       3.8753      2.00000
    106       3.9499      2.00000
    107       4.0738      2.00000
    108       4.1015      2.00000
    109       4.1453      2.00000
    110       4.2491      2.00000
    111       4.2643      2.00000
    112       4.3216      2.00000
    113       4.3475      2.00000
    114       4.3990      2.00000
    115       4.4466      2.00000
    116       4.4476      2.00000
    117       4.4916      2.00000
    118       4.4946      2.00000
    119       4.5309      2.00000
    120       4.6864      2.00000
    121       4.6923      2.00000
    122       4.7167      2.00000
    123       4.7421      2.00000
    124       4.7869      2.00000
    125       4.8310      2.00000
    126       4.8411      2.00000
    127       4.8998      2.00000
    128       4.9581      2.00000
    129       5.0847      2.00000
    130       5.0998      2.00000
    131       5.2424      2.00000
    132       5.2438      2.00000
    133       5.2886      2.00000
    134       5.2954      2.00000
    135       5.4229      2.00000
    136       5.4702      2.00000
    137       5.4708      2.00000
    138       5.5159      2.00000
    139       5.5185      2.00000
    140       5.5940      2.00000
    141       5.6380      2.00000
    142       5.6447      2.00000
    143       5.6929      2.00000
    144       5.7037      2.00000
    145       5.7225      2.00000
    146       5.7500      2.00000
    147       5.7513      2.00000
    148       5.7651      2.00000
    149       5.8181      2.00000
    150       5.8895      2.00000
    151       5.9430      2.00000
    152       5.9662      2.00000
    153       5.9856      2.00000
    154       5.9877      2.00000
    155       6.0208      2.00000
    156       6.0237      2.00000
    157       6.1259      2.00000
    158       6.1337      2.00000
    159       6.2257      2.00000
[...]
     0.000000000  9.683890122  0.000000000     0.000000000  0.103264286  0.000000000
     0.000000000  0.000000000  6.882519784     0.000000000  0.000000000  0.145295623

  length of vectors
     9.416291215  9.683890122  6.882519784     0.106198925  0.103264286  0.145295623


 FORCES acting on ions
    electron-ion (+dipol)            ewald-force                    non-local-force                 convergence-correction
 -----------------------------------------------------------------------------------------------
   0.355E+01 -.312E+01 0.172E+02   -.342E+01 0.734E+00 -.164E+02   -.147E+00 0.253E+01 -.884E+00   -.483E-04 0.688E-05 0.404E-04
   0.355E+01 -.312E+01 0.172E+02   -.342E+01 0.734E+00 -.164E+02   -.147E+00 0.253E+01 -.884E+00   -.483E-04 0.103E-04 0.402E-04
   0.355E+01 -.312E+01 0.172E+02   -.342E+01 0.734E+00 -.164E+02   -.147E+00 0.253E+01 -.884E+00   -.500E-04 0.688E-05 0.403E-04
   0.355E+01 -.312E+01 0.172E+02   -.342E+01 0.734E+00 -.164E+02   -.147E+00 0.253E+01 -.884E+00   -.500E-04 0.103E-04 0.401E-04
   0.355E+01 0.312E+01 -.172E+02   -.342E+01 -.734E+00 0.164E+02   -.147E+00 -.253E+01 0.884E+00   -.483E-04 -.853E-05 -.397E-04
   0.355E+01 0.312E+01 -.172E+02   -.342E+01 -.734E+00 0.164E+02   -.147E+00 -.253E+01 0.884E+00   -.483E-04 -.861E-05 -.397E-04
   0.355E+01 0.312E+01 -.172E+02   -.342E+01 -.734E+00 0.164E+02   -.147E+00 -.253E+01 0.884E+00   -.500E-04 -.854E-05 -.396E-04
   0.355E+01 0.312E+01 -.172E+02   -.342E+01 -.734E+00 0.164E+02   -.147E+00 -.253E+01 0.884E+00   -.500E-04 -.861E-05 -.397E-04
   -.355E+01 -.312E+01 -.172E+02   0.342E+01 0.734E+00 0.164E+02   0.147E+00 0.253E+01 0.884E+00   0.500E-04 0.910E-05 -.405E-04
   -.355E+01 -.312E+01 -.172E+02   0.342E+01 0.734E+00 0.164E+02   0.147E+00 0.253E+01 0.884E+00   0.500E-04 0.809E-05 -.405E-04
   -.355E+01 -.312E+01 -.172E+02   0.342E+01 0.734E+00 0.164E+02   0.147E+00 0.253E+01 0.884E+00   0.482E-04 0.910E-05 -.406E-04
   -.355E+01 -.312E+01 -.172E+02   0.342E+01 0.734E+00 0.164E+02   0.147E+00 0.253E+01 0.884E+00   0.482E-04 0.808E-05 -.406E-04
   -.355E+01 0.312E+01 0.172E+02   0.342E+01 -.734E+00 -.164E+02   0.147E+00 -.253E+01 -.884E+00   0.500E-04 -.685E-05 0.400E-04
   -.355E+01 0.312E+01 0.172E+02   0.342E+01 -.734E+00 -.164E+02   0.147E+00 -.253E+01 -.884E+00   0.500E-04 -.103E-04 0.398E-04
   -.355E+01 0.312E+01 0.172E+02   0.342E+01 -.734E+00 -.164E+02   0.147E+00 -.253E+01 -.884E+00   0.482E-04 -.685E-05 0.401E-04
   -.355E+01 0.312E+01 0.172E+02   0.342E+01 -.734E+00 -.164E+02   0.147E+00 -.253E+01 -.884E+00   0.482E-04 -.103E-04 0.399E-04
   -.355E+01 0.312E+01 -.172E+02   0.342E+01 -.734E+00 0.164E+02   0.147E+00 -.253E+01 0.884E+00   0.492E-04 -.685E-05 -.398E-04
   -.355E+01 0.312E+01 -.172E+02   0.342E+01 -.734E+00 0.164E+02   0.147E+00 -.253E+01 0.884E+00   0.492E-04 -.103E-04 -.396E-04
   -.355E+01 0.312E+01 -.172E+02   0.342E+01 -.734E+00 0.164E+02   0.147E+00 -.253E+01 0.884E+00   0.491E-04 -.685E-05 -.398E-04
   -.355E+01 0.312E+01 -.172E+02   0.342E+01 -.734E+00 0.164E+02   0.147E+00 -.253E+01 0.884E+00   0.491E-04 -.103E-04 -.396E-04
   -.355E+01 -.312E+01 0.172E+02   0.342E+01 0.734E+00 -.164E+02   0.147E+00 0.253E+01 -.884E+00   0.492E-04 0.910E-05 0.402E-04
   -.355E+01 -.312E+01 0.172E+02   0.342E+01 0.734E+00 -.164E+02   0.147E+00 0.253E+01 -.884E+00   0.492E-04 0.808E-05 0.403E-04
   -.355E+01 -.312E+01 0.172E+02   0.342E+01 0.734E+00 -.164E+02   0.147E+00 0.253E+01 -.884E+00   0.491E-04 0.910E-05 0.403E-04
   -.355E+01 -.312E+01 0.172E+02   0.342E+01 0.734E+00 -.164E+02   0.147E+00 0.253E+01 -.884E+00   0.491E-04 0.808E-05 0.403E-04
   0.355E+01 0.312E+01 0.172E+02   -.342E+01 -.734E+00 -.164E+02   -.147E+00 -.253E+01 -.884E+00   -.490E-04 -.853E-05 0.400E-04
   0.355E+01 0.312E+01 0.172E+02   -.342E+01 -.734E+00 -.164E+02   -.147E+00 -.253E+01 -.884E+00   -.490E-04 -.861E-05 0.400E-04
   0.355E+01 0.312E+01 0.172E+02   -.342E+01 -.734E+00 -.164E+02   -.147E+00 -.253E+01 -.884E+00   -.492E-04 -.854E-05 0.399E-04
   0.355E+01 0.312E+01 0.172E+02   -.342E+01 -.734E+00 -.164E+02   -.147E+00 -.253E+01 -.884E+00   -.492E-04 -.861E-05 0.400E-04
   0.355E+01 -.312E+01 -.172E+02   -.342E+01 0.734E+00 0.164E+02   -.147E+00 0.253E+01 0.884E+00   -.490E-04 0.688E-05 -.407E-04
   0.355E+01 -.312E+01 -.172E+02   -.342E+01 0.734E+00 0.164E+02   -.147E+00 0.253E+01 0.884E+00   -.490E-04 0.103E-04 -.405E-04
   0.355E+01 -.312E+01 -.172E+02   -.342E+01 0.734E+00 0.164E+02   -.147E+00 0.253E+01 0.884E+00   -.492E-04 0.688E-05 -.406E-04
   0.355E+01 -.312E+01 -.172E+02   -.342E+01 0.734E+00 0.164E+02   -.147E+00 0.253E+01 0.884E+00   -.492E-04 0.103E-04 -.404E-04
   0.700E+01 0.342E+01 -.191E+02   -.568E+01 -.270E+01 0.202E+02   -.127E+01 -.681E+00 -.105E+01   -.168E-03 0.308E-04 -.628E-03
   0.700E+01 0.342E+01 -.191E+02   -.568E+01 -.270E+01 0.202E+02   -.127E+01 -.681E+00 -.105E+01   -.168E-03 0.383E-04 -.628E-03
   0.700E+01 0.342E+01 -.191E+02   -.568E+01 -.270E+01 0.202E+02   -.127E+01 -.681E+00 -.105E+01   -.172E-03 0.308E-04 -.627E-03
   0.700E+01 0.342E+01 -.191E+02   -.568E+01 -.270E+01 0.202E+02   -.127E+01 -.681E+00 -.105E+01   -.172E-03 0.383E-04 -.628E-03
   0.700E+01 -.342E+01 0.191E+02   -.568E+01 0.270E+01 -.202E+02   -.127E+01 0.681E+00 0.105E+01   -.168E-03 -.350E-04 0.629E-03
   0.700E+01 -.342E+01 0.191E+02   -.568E+01 0.270E+01 -.202E+02   -.127E+01 0.681E+00 0.105E+01   -.168E-03 -.341E-04 0.629E-03
   0.700E+01 -.342E+01 0.191E+02   -.568E+01 0.270E+01 -.202E+02   -.127E+01 0.681E+00 0.105E+01   -.172E-03 -.350E-04 0.629E-03
   0.700E+01 -.342E+01 0.191E+02   -.568E+01 0.270E+01 -.202E+02   -.127E+01 0.681E+00 0.105E+01   -.172E-03 -.341E-04 0.629E-03
   -.700E+01 0.342E+01 0.191E+02   0.568E+01 -.270E+01 -.202E+02   0.127E+01 -.681E+00 0.105E+01   0.172E-03 0.362E-04 0.629E-03
   -.700E+01 0.342E+01 0.191E+02   0.568E+01 -.270E+01 -.202E+02   0.127E+01 -.681E+00 0.105E+01   0.172E-03 0.330E-04 0.629E-03
   -.700E+01 0.342E+01 0.191E+02   0.568E+01 -.270E+01 -.202E+02   0.127E+01 -.681E+00 0.105E+01   0.168E-03 0.362E-04 0.629E-03
   -.700E+01 0.342E+01 0.191E+02   0.568E+01 -.270E+01 -.202E+02   0.127E+01 -.681E+00 0.105E+01   0.168E-03 0.329E-04 0.629E-03
   -.700E+01 -.342E+01 -.191E+02   0.568E+01 0.270E+01 0.202E+02   0.127E+01 0.681E+00 -.105E+01   0.172E-03 -.304E-04 -.630E-03
   -.700E+01 -.342E+01 -.191E+02   0.568E+01 0.270E+01 0.202E+02   0.127E+01 0.681E+00 -.105E+01   0.172E-03 -.388E-04 -.630E-03
   -.700E+01 -.342E+01 -.191E+02   0.568E+01 0.270E+01 0.202E+02   0.127E+01 0.681E+00 -.105E+01   0.168E-03 -.304E-04 -.630E-03
   -.700E+01 -.342E+01 -.191E+02   0.568E+01 0.270E+01 0.202E+02   0.127E+01 0.681E+00 -.105E+01   0.168E-03 -.388E-04 -.631E-03
   -.700E+01 -.342E+01 0.191E+02   0.568E+01 0.270E+01 -.202E+02   0.127E+01 0.681E+00 0.105E+01   0.169E-03 -.304E-04 0.629E-03
   -.700E+01 -.342E+01 0.191E+02   0.568E+01 0.270E+01 -.202E+02   0.127E+01 0.681E+00 0.105E+01   0.169E-03 -.388E-04 0.629E-03
   -.700E+01 -.342E+01 0.191E+02   0.568E+01 0.270E+01 -.202E+02   0.127E+01 0.681E+00 0.105E+01   0.171E-03 -.304E-04 0.629E-03
   -.700E+01 -.342E+01 0.191E+02   0.568E+01 0.270E+01 -.202E+02   0.127E+01 0.681E+00 0.105E+01   0.171E-03 -.388E-04 0.630E-03
   -.700E+01 0.342E+01 -.191E+02   0.568E+01 -.270E+01 0.202E+02   0.127E+01 -.681E+00 -.105E+01   0.169E-03 0.362E-04 -.628E-03
   -.700E+01 0.342E+01 -.191E+02   0.568E+01 -.270E+01 0.202E+02   0.127E+01 -.681E+00 -.105E+01   0.169E-03 0.330E-04 -.628E-03
   -.700E+01 0.342E+01 -.191E+02   0.568E+01 -.270E+01 0.202E+02   0.127E+01 -.681E+00 -.105E+01   0.171E-03 0.362E-04 -.628E-03
   -.700E+01 0.342E+01 -.191E+02   0.568E+01 -.270E+01 0.202E+02   0.127E+01 -.681E+00 -.105E+01   0.171E-03 0.330E-04 -.628E-03
   0.700E+01 -.342E+01 -.191E+02   -.568E+01 0.270E+01 0.202E+02   -.127E+01 0.681E+00 -.105E+01   -.169E-03 -.349E-04 -.630E-03
   0.700E+01 -.342E+01 -.191E+02   -.568E+01 0.270E+01 0.202E+02   -.127E+01 0.681E+00 -.105E+01   -.169E-03 -.341E-04 -.630E-03
   0.700E+01 -.342E+01 -.191E+02   -.568E+01 0.270E+01 0.202E+02   -.127E+01 0.681E+00 -.105E+01   -.171E-03 -.350E-04 -.630E-03
   0.700E+01 -.342E+01 -.191E+02   -.568E+01 0.270E+01 0.202E+02   -.127E+01 0.681E+00 -.105E+01   -.171E-03 -.341E-04 -.630E-03
   0.700E+01 0.342E+01 0.191E+02   -.568E+01 -.270E+01 -.202E+02   -.127E+01 -.681E+00 0.105E+01   -.169E-03 0.308E-04 0.629E-03
   0.700E+01 0.342E+01 0.191E+02   -.568E+01 -.270E+01 -.202E+02   -.127E+01 -.681E+00 0.105E+01   -.169E-03 0.383E-04 0.629E-03
   0.700E+01 0.342E+01 0.191E+02   -.568E+01 -.270E+01 -.202E+02   -.127E+01 -.681E+00 0.105E+01   -.171E-03 0.308E-04 0.629E-03
   0.700E+01 0.342E+01 0.191E+02   -.568E+01 -.270E+01 -.202E+02   -.127E+01 -.681E+00 0.105E+01   -.171E-03 0.383E-04 0.629E-03
   -.208E+02 -.437E-04 -.306E-04   0.218E+02 0.121E-04 0.412E-04   -.957E+00 0.142E-18 -.483E-19   -.139E-03 -.243E-05 -.139E-05
   -.208E+02 -.414E-04 -.264E-04   0.218E+02 -.432E-05 0.491E-05   -.957E+00 0.330E-19 0.449E-20   -.139E-03 0.242E-05 -.700E-06
   -.208E+02 -.437E-04 -.306E-04   0.218E+02 0.121E-04 0.412E-04   -.957E+00 0.141E-18 -.533E-20   -.142E-03 -.243E-05 -.139E-05
   -.208E+02 -.414E-04 -.264E-04   0.218E+02 -.432E-05 0.491E-05   -.957E+00 0.130E-18 0.589E-19   -.142E-03 0.242E-05 -.700E-06
   0.208E+02 -.427E-04 -.449E-04   -.218E+02 -.146E-05 -.191E-04   0.957E+00 -.117E-18 -.537E-19   0.142E-03 0.333E-05 0.749E-06
   0.208E+02 -.444E-04 -.406E-04   -.218E+02 0.159E-04 -.437E-04   0.957E+00 -.109E-18 -.535E-19   0.142E-03 -.334E-05 0.138E-05
   0.208E+02 -.427E-04 -.449E-04   -.218E+02 -.146E-05 -.191E-04   0.957E+00 -.207E-18 0.535E-19   0.139E-03 0.333E-05 0.749E-06
   0.208E+02 -.444E-04 -.406E-04   -.218E+02 0.159E-04 -.437E-04   0.957E+00 -.250E-18 -.568E-19   0.139E-03 -.334E-05 0.138E-05
   0.208E+02 -.431E-04 -.545E-04   -.218E+02 -.402E-05 0.120E-04   0.957E+00 -.237E-18 0.645E-19   0.139E-03 0.333E-05 -.734E-06
   0.208E+02 -.448E-04 -.588E-04   -.218E+02 0.133E-04 0.367E-04   0.957E+00 -.139E-18 0.464E-19   0.139E-03 -.334E-05 -.136E-05
   0.208E+02 -.431E-04 -.545E-04   -.218E+02 -.402E-05 0.120E-04   0.957E+00 -.139E-18 0.124E-18   0.141E-03 0.333E-05 -.734E-06
   0.208E+02 -.448E-04 -.588E-04   -.218E+02 0.133E-04 0.367E-04   0.957E+00 -.129E-18 -.638E-19   0.141E-03 -.334E-05 -.136E-05
   -.208E+02 -.463E-04 -.125E-04   0.218E+02 0.146E-04 -.483E-04   -.957E+00 0.277E-19 -.572E-19   -.139E-03 -.243E-05 0.141E-05
   -.208E+02 -.440E-04 -.167E-04   0.218E+02 -.176E-05 -.120E-04   -.957E+00 0.280E-18 -.741E-19   -.139E-03 0.242E-05 0.715E-06
   -.208E+02 -.463E-04 -.125E-04   0.218E+02 0.146E-04 -.483E-04   -.957E+00 0.596E-19 -.565E-19   -.141E-03 -.243E-05 0.141E-05
   -.208E+02 -.440E-04 -.167E-04   0.218E+02 -.176E-05 -.120E-04   -.957E+00 0.902E-19 0.606E-19   -.141E-03 0.242E-05 0.715E-06
 -----------------------------------------------------------------------------------------------
   0.484E-02 -.230E-02 -.764E-03   0.533E-13 -.593E-13 0.208E-12   -.444E-15 -.100E-14 -.444E-15   0.133E-06 -.259E-07 0.833E-08


 POSITION                                       TOTAL-FORCE (eV/Angst)
 -----------------------------------------------------------------------------------
      1.18787      0.15201      2.68410        -0.016441      0.144571     -0.093716
      1.18787      4.99396      2.68410        -0.016441      0.144571     -0.093716
      5.89602      0.15201      2.68410        -0.016441      0.144571     -0.093716
      5.89602      4.99396      2.68410        -0.016441      0.144571     -0.093716
      1.18787      2.26896      4.19842        -0.016441     -0.144571      0.093716
      1.18787      7.11091      4.19842        -0.016441     -0.144571      0.093716
      5.89602      2.26896      4.19842        -0.016441     -0.144571      0.093716
      5.89602      7.11091      4.19842        -0.016441     -0.144571      0.093716
      1.16620      2.57298      0.75716         0.016441      0.144571      0.093716
      1.16620      7.41493      0.75716         0.016441      0.144571      0.093716
      5.87435      2.57298      0.75716         0.016441      0.144571      0.093716
      5.87435      7.41493      0.75716         0.016441      0.144571      0.093716
      1.16620      4.68993      6.12536         0.016441     -0.144571     -0.093716
      1.16620      9.53188      6.12536         0.016441     -0.144571     -0.093716
      5.87435      4.68993      6.12536         0.016441     -0.144571     -0.093716
      5.87435      9.53188      6.12536         0.016441     -0.144571     -0.093716
      3.52028      4.68993      4.19842         0.016441     -0.144571      0.093716
      3.52028      9.53188      4.19842         0.016441     -0.144571      0.093716
      8.22842      4.68993      4.19842         0.016441     -0.144571      0.093716
      8.22842      9.53188      4.19842         0.016441     -0.144571      0.093716
      3.52028      2.57298      2.68410         0.016441      0.144571     -0.093716
      3.52028      7.41493      2.68410         0.016441      0.144571     -0.093716
      8.22842      2.57298      2.68410         0.016441      0.144571     -0.093716
      8.22842      7.41493      2.68410         0.016441      0.144571     -0.093716
      3.54194      2.26896      6.12536        -0.016441     -0.144571     -0.093716
      3.54194      7.11091      6.12536        -0.016441     -0.144571     -0.093716
      8.25009      2.26896      6.12536        -0.016441     -0.144571     -0.093716
      8.25009      7.11091      6.12536        -0.016441     -0.144571     -0.093716
      3.54194      0.15201      0.75716        -0.016441      0.144571      0.093716
      3.54194      4.99396      0.75716        -0.016441      0.144571      0.093716
      8.25009      0.15201      0.75716        -0.016441      0.144571      0.093716
      8.25009      4.99396      0.75716        -0.016441      0.144571      0.093716
      0.50411      0.49577      4.50219         0.044234      0.038995      0.061876
      0.50411      5.33772      4.50219         0.044234      0.038995      0.061876
      5.21226      0.49577      4.50219         0.044234      0.038995      0.061876
      5.21226      5.33772      4.50219         0.044234      0.038995      0.061876
      0.50411      1.92520      2.38033         0.044234     -0.038995     -0.061876
      0.50411      6.76715      2.38033         0.044234     -0.038995     -0.061876
      5.21226      1.92520      2.38033         0.044234     -0.038995     -0.061876
      5.21226      6.76715      2.38033         0.044234     -0.038995     -0.061876
      1.84996      2.91674      5.82159        -0.044234      0.038995     -0.061876
      1.84996      7.75869      5.82159        -0.044234      0.038995     -0.061876
      6.55810      2.91674      5.82159        -0.044234      0.038995     -0.061876
      6.55810      7.75869      5.82159        -0.044234      0.038995     -0.061876
      1.84996      4.34617      1.06093        -0.044234     -0.038995      0.061876
      1.84996      9.18812      1.06093        -0.044234     -0.038995      0.061876
      6.55810      4.34617      1.06093        -0.044234     -0.038995      0.061876
      6.55810      9.18812      1.06093        -0.044234     -0.038995      0.061876
      4.20403      4.34617      2.38033        -0.044234     -0.038995     -0.061876
      4.20403      9.18812      2.38033        -0.044234     -0.038995     -0.061876
      8.91218      4.34617      2.38033        -0.044234     -0.038995     -0.061876
      8.91218      9.18812      2.38033        -0.044234     -0.038995     -0.061876
      4.20403      2.91674      4.50219        -0.044234      0.038995      0.061876
      4.20403      7.75869      4.50219        -0.044234      0.038995      0.061876
      8.91218      2.91674      4.50219        -0.044234      0.038995      0.061876
      8.91218      7.75869      4.50219        -0.044234      0.038995      0.061876
      2.85819      1.92520      1.06093         0.044234     -0.038995      0.061876
      2.85819      6.76715      1.06093         0.044234     -0.038995      0.061876
      7.56633      1.92520      1.06093         0.044234     -0.038995      0.061876
      7.56633      6.76715      1.06093         0.044234     -0.038995      0.061876
      2.85819      0.49577      5.82159         0.044234      0.038995     -0.061876
      2.85819      5.33772      5.82159         0.044234      0.038995     -0.061876
      7.56633      0.49577      5.82159         0.044234      0.038995     -0.061876
      7.56633      5.33772      5.82159         0.044234      0.038995     -0.061876
      0.23629      1.21049      0.00000         0.063923     -0.000000     -0.000000
      0.23629      6.05243      0.00000         0.063923     -0.000000     -0.000000
      4.94444      1.21049      0.00000         0.063923     -0.000000     -0.000000
      4.94444      6.05243      0.00000         0.063923     -0.000000     -0.000000
      2.11778      3.63146      3.44126        -0.063923     -0.000000     -0.000000
      2.11778      8.47340      3.44126        -0.063923     -0.000000     -0.000000
      6.82593      3.63146      3.44126        -0.063923     -0.000000     -0.000000
      6.82593      8.47340      3.44126        -0.063923     -0.000000     -0.000000
      4.47185      3.63146      0.00000        -0.063923     -0.000000     -0.000000
      4.47185      8.47340      0.00000        -0.063923     -0.000000     -0.000000
      9.18000      3.63146      0.00000        -0.063923     -0.000000     -0.000000
      9.18000      8.47340      0.00000        -0.063923     -0.000000     -0.000000
      2.59037      1.21049      3.44126         0.063923     -0.000000     -0.000000
      2.59037      6.05243      3.44126         0.063923     -0.000000     -0.000000
      7.29851      1.21049      3.44126         0.063923     -0.000000     -0.000000
      7.29851      6.05243      3.44126         0.063923     -0.000000     -0.000000
 -----------------------------------------------------------------------------------
    total drift:                                0.004836     -0.002295     -0.000764


--------------------------------------------------------------------------------------------------------



  FREE ENERGIE OF THE ION-ELECTRON SYSTEM (eV)
  ---------------------------------------------------
  free  energy   TOTEN  =      -587.89072621 eV

  energy  without entropy=     -587.89129330  energy(sigma->0) =     -587.89091524



--------------------------------------------------------------------------------------------------------


    POTLOK:  cpu time      0.4150: real time      0.4258


--------------------------------------------------------------------------------------------------------


 writing wavefunctions
     LOOP+:  cpu time   1142.2510: real time   1195.1907
    4ORBIT:  cpu time      0.0000: real time      0.0000

 total amount of memory used by VASP MPI-rank0   463617. kBytes
=======================================================================

   base      :      30000. kBytes
   nonlr-proj:       9020. kBytes
   fftplans  :      23216. kBytes
   grid      :      41250. kBytes
   one-center:        245. kBytes
   wavefun   :     359886. kBytes

  
  
 General timing and accounting informations for this job:
 ========================================================
  
                  Total CPU time used (sec):     1150.440
                            User time (sec):     1146.940
                          System time (sec):        3.500
                         Elapsed time (sec):     1250.919
  
                   Maximum memory used (kb):      648240.
                   Average memory used (kb):          N/A
  
                          Minor page faults:       589801
                          Major page faults:            6
                 Voluntary context switches:         1224
