 vasp.6.1.0 28Jan20 (build Mar 09 2020 14:40:17) complex                        
  
 executed on             LinuxIFC date 2024.01.18  14:58:07
 running on    1 total cores
 distrk:  each k-point on    1 cores,    1 groups
 distr:  one band on NCORE=   1 cores,    1 groups


--------------------------------------------------------------------------------------------------------


 INCAR:
 POTCAR:    PAW_PBE Al 04Jan2001                  
 POTCAR:    PAW_PBE O 08Apr2002                   
 POTCAR:    PAW_PBE Al 04Jan2001                  
   SHA256 =  17880443556af62b473fe41b62a467bd001ad55d2cabe504a3f22e34d4e9db96 Al/POTCAR             
   COPYR  = (c) Copyright 04Jan2001 Georg Kresse                                                    
   COPYR  = This file is part of the software VASP. Any use, copying, and all other rights are regul
   COPYR  = If you do not have a valid VASP license, you may not use, copy or distribute this file. 
   VRHFIN =Al: s2p1                                                                                 
   LEXCH  = PE                                                                                      
   EATOM  =    53.5387 eV,    3.9350 Ry                                                             
                                                                                                    
   TITEL  = PAW_PBE Al 04Jan2001                                                                    
   LULTRA =        F    use ultrasoft PP ?                                                          
   IUNSCR =        1    unscreen: 0-lin 1-nonlin 2-no                                               
   RPACOR =    1.500    partial core radius                                                         
   POMASS =   26.981; ZVAL   =    3.000    mass and valenz                                          
   RCORE  =    1.900    outmost cutoff radius                                                       
   RWIGS  =    2.650; RWIGS  =    1.402    wigner-seitz radius (au A)                               
   ENMAX  =  240.300; ENMIN  =  180.225 eV                                                          
   ICORE  =        2    local potential                                                             
   LCOR   =        T    correct aug charges                                                         
   LPAW   =        T    paw PP                                                                      
   EAUG   =  291.052                                                                                
   DEXC   =    0.000                                                                                
   RMAX   =    1.939    core radius for proj-oper                                                   
   RAUG   =    1.300    factor for augmentation sphere                                              
   RDEP   =    1.966    radius for radial grids                                                     
   RDEPT  =    1.856    core radius for aug-charge                                                  
                                                                                                    
   Atomic configuration                                                                             
    6 entries                                                                                       
     n  l   j            E        occ.                                                              
     1  0  0.50     -1511.1048   2.0000                                                             
     2  0  0.50      -108.1629   2.0000                                                             
     2  1  1.50       -69.6402   6.0000                                                             
     3  0  0.50        -7.7528   2.0000                                                             
     3  1  1.50        -2.7121   1.0000                                                             
     3  2  2.50        -2.7212   0.0000                                                             
   Description                                                                                      
     l       E           TYP  RCUT    TYP  RCUT                                                     
     0     -7.7528455     23  1.900                                                                 
     0     -3.3096929     23  1.900                                                                 
     1     -2.7120682     23  1.900                                                                 
     1     13.6058260     23  1.900                                                                 
     2     -2.7211652      7  1.900                                                                 
  local pseudopotential read in
  partial core-charges read in
  partial kinetic energy density read in
  atomic valenz-charges read in
  non local Contribution for L=           0  read in
    real space projection operators read in
  non local Contribution for L=           0  read in
    real space projection operators read in
  non local Contribution for L=           1  read in
    real space projection operators read in
  non local Contribution for L=           1  read in
    real space projection operators read in
    PAW grid and wavefunctions read in
 
   number of l-projection  operators is LMAX  =           4
   number of lm-projection operators is LMMAX =           8
 
 POTCAR:    PAW_PBE O 08Apr2002                   
   SHA256 =  818f92134a0a090dccd8ba1447fa70422a3b330e708bb4f08108d8ae51209ddf O/POTCAR              
   COPYR  = (c) Copyright 08Apr2002 Georg Kresse                                                    
   COPYR  = This file is part of the software VASP. Any use, copying, and all other rights are regul
   COPYR  = If you do not have a valid VASP license, you may not use, copy or distribute this file. 
   VRHFIN =O: s2p4                                                                                  
   LEXCH  = PE                                                                                      
   EATOM  =   432.3788 eV,   31.7789 Ry                                                             
                                                                                                    
   TITEL  = PAW_PBE O 08Apr2002                                                                     
   LULTRA =        F    use ultrasoft PP ?                                                          
   IUNSCR =        1    unscreen: 0-lin 1-nonlin 2-no                                               
   RPACOR =    1.200    partial core radius                                                         
   POMASS =   16.000; ZVAL   =    6.000    mass and valenz                                          
   RCORE  =    1.520    outmost cutoff radius                                                       
   RWIGS  =    1.550; RWIGS  =    0.820    wigner-seitz radius (au A)                               
   ENMAX  =  400.000; ENMIN  =  300.000 eV                                                          
   ICORE  =        2    local potential                                                             
   LCOR   =        T    correct aug charges                                                         
   LPAW   =        T    paw PP                                                                      
   EAUG   =  605.392                                                                                
   DEXC   =    0.000                                                                                
   RMAX   =    1.553    core radius for proj-oper                                                   
   RAUG   =    1.300    factor for augmentation sphere                                              
   RDEP   =    1.550    radius for radial grids                                                     
   RDEPT  =    1.329    core radius for aug-charge                                                  
                                                                                                    
   Atomic configuration                                                                             
    4 entries                                                                                       
     n  l   j            E        occ.                                                              
     1  0  0.50      -514.6923   2.0000                                                             
     2  0  0.50       -23.9615   2.0000                                                             
     2  1  0.50        -9.0305   4.0000                                                             
     3  2  1.50        -9.5241   0.0000                                                             
   Description                                                                                      
     l       E           TYP  RCUT    TYP  RCUT                                                     
     0    -23.9615318     23  1.200                                                                 
     0     -9.5240782     23  1.200                                                                 
     1     -9.0304911     23  1.520                                                                 
     1      8.1634956     23  1.520                                                                 
     2     -9.5240782      7  1.500                                                                 
  local pseudopotential read in
  partial core-charges read in
  partial kinetic energy density read in
  kinetic energy density of atom read in
  atomic valenz-charges read in
  non local Contribution for L=           0  read in
    real space projection operators read in
  non local Contribution for L=           0  read in
    real space projection operators read in
  non local Contribution for L=           1  read in
    real space projection operators read in
  non local Contribution for L=           1  read in
    real space projection operators read in
    PAW grid and wavefunctions read in
 
   number of l-projection  operators is LMAX  =           4
   number of lm-projection operators is LMMAX =           8
 
 Optimization of the real space projectors (new method)

 maximal supplied QI-value         = 19.84
 optimisation between [QCUT,QGAM] = [ 10.12, 20.44] = [ 28.68,116.96] Ry 
 Optimized for a Real-space Cutoff    1.23 Angstroem

   l    n(q)    QCUT    max X(q) W(low)/X(q) W(high)/X(q)  e(spline) 
   0      7    10.119   176.870    0.49E-04    0.18E-03    0.39E-07
   0      7    10.119   105.762    0.46E-04    0.18E-03    0.38E-07
   1      7    10.119    55.370    0.30E-03    0.37E-03    0.12E-06
   1      7    10.119    20.208    0.27E-03    0.35E-03    0.11E-06
 Optimization of the real space projectors (new method)

 maximal supplied QI-value         = 24.76
 optimisation between [QCUT,QGAM] = [ 10.15, 20.30] = [ 28.85,115.39] Ry 
 Optimized for a Real-space Cutoff    1.38 Angstroem

   l    n(q)    QCUT    max X(q) W(low)/X(q) W(high)/X(q)  e(spline) 
   0      8    10.150    20.381    0.22E-03    0.32E-03    0.29E-06
   0      8    10.150    15.268    0.23E-03    0.35E-03    0.30E-06
   1      8    10.150     5.964    0.46E-03    0.53E-03    0.21E-06
   1      8    10.150     5.382    0.38E-03    0.45E-03    0.19E-06
  PAW_PBE Al 04Jan2001                  :
 energy of atom  1       EATOM=  -53.5387
 kinetic energy error for atom=    0.0005 (will be added to EATOM!!)
  PAW_PBE O 08Apr2002                   :
 energy of atom  2       EATOM= -432.3788
 kinetic energy error for atom=    0.1156 (will be added to EATOM!!)
 
 
 POSCAR:    Al  O
  positions in direct lattice
  No initial velocities read in
 exchange correlation table for  LEXCH =        8
   RHO(1)=    0.500       N(1)  =     2000
   RHO(2)=  100.500       N(2)  =     4000

 VTST: version 3.2, (02/03/18)

 CHAIN: initializing optimizer
 
 OPT: Using VASP Dynamics algorithm
 CHAIN: Read ICHAIN            0
 
 POSCAR:    Al  O
  positions in direct lattice
  No initial velocities read in
 


--------------------------------------------------------------------------------------------------------


 ion  position               nearest neighbor table
   1  0.252  0.031  0.390-  18 1.85  13 1.87  12 1.91  20 1.95  10 1.96   9 2.01   2 2.66   5 2.85
                             5 2.89   8 3.10   8 3.10   3 3.16   3 3.16   2 3.18
   2  0.252  0.469  0.610-  18 1.85  14 1.87  11 1.91  20 1.95   9 1.96  10 2.01   1 2.66   6 2.85
                             6 2.89   7 3.10   7 3.10   4 3.16   4 3.16   1 3.18
   3  0.248  0.531  0.110-  17 1.85  15 1.87  10 1.91  19 1.95  12 1.96  11 2.01   4 2.66   7 2.85
                             7 2.89   6 3.10   6 3.10   1 3.16   1 3.16   4 3.18
   4  0.248  0.969  0.890-  17 1.85  16 1.87   9 1.91  19 1.95  11 1.96  12 2.01   3 2.66   8 2.85
                             8 2.89   5 3.10   5 3.10   2 3.16   2 3.16   3 3.18
   5  0.748  0.969  0.610-  20 1.85   9 1.87  16 1.91  18 1.95  14 1.96  13 2.01   6 2.66   1 2.85
                             1 2.89   4 3.10   4 3.10   7 3.16   7 3.16   6 3.18
   6  0.748  0.531  0.390-  20 1.85  10 1.87  15 1.91  18 1.95  13 1.96  14 2.01   5 2.66   2 2.85
                             2 2.89   3 3.10   3 3.10   8 3.16   8 3.16   5 3.18
   7  0.752  0.469  0.890-  19 1.85  11 1.87  14 1.91  17 1.95  16 1.96  15 2.01   8 2.66   3 2.85
                             3 2.89   2 3.10   2 3.10   5 3.16   5 3.16   8 3.18
   8  0.752  0.031  0.110-  19 1.85  12 1.87  13 1.91  17 1.95  15 1.96  16 2.01   7 2.66   4 2.85
                             4 2.89   1 3.10   1 3.10   6 3.16   6 3.16   7 3.18
   9  0.107  0.102  0.654-   5 1.87   4 1.91   2 1.96   1 2.01
  10  0.107  0.398  0.346-   6 1.87   3 1.91   1 1.96   2 2.01
  11  0.393  0.602  0.846-   7 1.87   2 1.91   4 1.96   3 2.01
  12  0.393  0.898  0.154-   8 1.87   1 1.91   3 1.96   4 2.01
  13  0.893  0.898  0.346-   1 1.87   8 1.91   6 1.96   5 2.01
  14  0.893  0.602  0.654-   2 1.87   7 1.91   5 1.96   6 2.01
  15  0.607  0.398  0.154-   3 1.87   6 1.91   8 1.96   7 2.01
  16  0.607  0.102  0.846-   4 1.87   5 1.91   7 1.96   8 2.01
  17  0.050  0.250  0.000-   3 1.85   4 1.85   8 1.95   7 1.95
  18  0.450  0.750  0.500-   1 1.85   2 1.85   6 1.95   5 1.95
  19  0.950  0.750  0.000-   8 1.85   7 1.85   3 1.95   4 1.95
  20  0.550  0.250  0.500-   6 1.85   5 1.85   2 1.95   1 1.95
 
  LATTYP: Found a simple orthorhombic cell.
 ALAT       =     4.8049445595
 B/A-ratio  =     1.0284415337
 C/A-ratio  =     1.4618613431
  
  Lattice vectors:
  
 A1 = (   4.8049445595,   0.0000000000,   0.0000000000)
 A2 = (   0.0000000000,   4.9416045518,   0.0000000000)
 A3 = (   0.0000000000,   0.0000000000,   7.0241627071)


Analysis of symmetry for initial positions (statically):
=====================================================================
 Subroutine PRICEL returns:
 Original cell was already a primitive cell.
 

 Routine SETGRP: Setting up the symmetry group for a 
 simple orthorhombic supercell.


 Subroutine GETGRP returns: Found  8 space group operations
 (whereof  2 operations were pure point group operations)
 out of a pool of  8 trial point group operations.


The static configuration has the point symmetry S_2 .
 The point group associated with its full space group is D_2h.


Analysis of symmetry for dynamics (positions and initial velocities):
=====================================================================
 Subroutine PRICEL returns:
 Original cell was already a primitive cell.
 

 Routine SETGRP: Setting up the symmetry group for a 
 simple orthorhombic supercell.


 Subroutine GETGRP returns: Found  8 space group operations
 (whereof  2 operations were pure point group operations)
 out of a pool of  8 trial point group operations.


The dynamic configuration has the point symmetry S_2 .
 The point group associated with its full space group is D_2h.


Analysis of constrained symmetry for selective dynamics:
=====================================================================
 Subroutine PRICEL returns:
 Original cell was already a primitive cell.
 

 Routine SETGRP: Setting up the symmetry group for a 
 simple orthorhombic supercell.


 Subroutine GETGRP returns: Found  8 space group operations
 (whereof  2 operations were pure point group operations)
 out of a pool of  8 trial point group operations.


The constrained configuration has the point symmetry S_2 .
 The point group associated with its full space group is D_2h.


 Subroutine INISYM returns: Found  8 space group operations
 (whereof  2 operations are pure point group operations),
 and found     1 'primitive' translations


----------------------------------------------------------------------------------------

                                     Primitive cell                                     

  volume of cell :     166.7827

  direct lattice vectors                    reciprocal lattice vectors
     4.804944559  0.000000000  0.000000000     0.208118947  0.000000000  0.000000000
     0.000000000  4.941604552  0.000000000     0.000000000  0.202363421  0.000000000
     0.000000000  0.000000000  7.024162707     0.000000000  0.000000000  0.142365723

  length of vectors
     4.804944559  4.941604552  7.024162707     0.208118947  0.202363421  0.142365723

  position of ions in fractional coordinates (direct lattice)
     0.252300235  0.031396366  0.389988577
     0.252300235  0.468603632  0.610011423
     0.247699765  0.531396368  0.110011408
     0.247699765  0.968603632  0.889988577
     0.747699735  0.968603632  0.610011423
     0.747699735  0.531396368  0.389988577
     0.752300265  0.468603632  0.889988577
     0.752300265  0.031396366  0.110011408
     0.107072754  0.102389751  0.654147657
     0.107072754  0.397610242  0.345852343
     0.392927238  0.602389729  0.845852343
     0.392927238  0.897610271  0.154147642
     0.892927268  0.897610271  0.345852343
     0.892927268  0.602389729  0.654147657
     0.607072732  0.397610242  0.154147642
     0.607072732  0.102389751  0.845852343
     0.050188369  0.250000000  0.000000000
     0.449811635  0.750000000  0.500000000
     0.949811605  0.750000000  0.000000000
     0.550188395  0.250000000  0.500000000

  ion indices of the primitive-cell ions
   primitive index   ion index
                 1           1
                 2           2
                 3           3
                 4           4
                 5           5
                 6           6
                 7           7
                 8           8
                 9           9
                10          10
                11          11
                12          12
                13          13
                14          14
                15          15
                16          16
                17          17
                18          18
                19          19
                20          20

----------------------------------------------------------------------------------------

 
 
 KPOINTS: k-points                                

Automatic generation of k-mesh.
Space group operators:
 irot       det(A)        alpha          n_x          n_y          n_z        tau_x        tau_y        tau_z
    1     1.000000     0.000001     1.000000     0.000000     0.000000     0.000000     0.000000     0.000000
    2    -1.000000     0.000001     1.000000     0.000000     0.000000     0.000000     0.000000     0.000000
    3     1.000000   180.000000     0.000000     0.000000     1.000000    -0.500000     0.000000    -0.500000
    4    -1.000000   180.000000     0.000000     0.000000     1.000000     0.500000     0.000000     0.500000
    5     1.000000   180.000000     0.000000     1.000000     0.000000    -0.500000    -0.500000     0.500000
    6    -1.000000   180.000000     0.000000     1.000000     0.000000     0.500000     0.500000    -0.500000
    7     1.000000   179.999999     1.000000     0.000000     0.000000     0.000000     0.500000     0.000000
    8    -1.000000   179.999999     1.000000     0.000000     0.000000     0.000000    -0.500000     0.000000
 
 Subroutine IBZKPT returns following result:
 ===========================================
 
 Found      8 irreducible k-points:
 
 Following reciprocal coordinates:
            Coordinates               Weight
  0.125000  0.125000  0.125000      8.000000
  0.375000  0.125000  0.125000      8.000000
  0.125000  0.375000  0.125000      8.000000
  0.375000  0.375000  0.125000      8.000000
  0.125000  0.125000  0.375000      8.000000
  0.375000  0.125000  0.375000      8.000000
  0.125000  0.375000  0.375000      8.000000
  0.375000  0.375000  0.375000      8.000000
 
 Following cartesian coordinates:
            Coordinates               Weight
  0.026015  0.025295  0.017796      8.000000
  0.078045  0.025295  0.017796      8.000000
  0.026015  0.075886  0.017796      8.000000
  0.078045  0.075886  0.017796      8.000000
  0.026015  0.025295  0.053387      8.000000
  0.078045  0.025295  0.053387      8.000000
  0.026015  0.075886  0.053387      8.000000
  0.078045  0.075886  0.053387      8.000000
 


--------------------------------------------------------------------------------------------------------




 Dimension of arrays:
   k-points           NKPTS =      8   k-points in BZ     NKDIM =      8   number of bands    NBANDS=     59
   number of dos      NEDOS =    301   number of ions     NIONS =     20
   non local maximal  LDIM  =      4   non local SUM 2l+1 LMDIM =      8
   total plane-waves  NPLWV =  20736
   max r-space proj   IRMAX =   1420   max aug-charges    IRDMAX=   5038
   dimension x,y,z NGX =    24 NGY =   24 NGZ =   36
   dimension x,y,z NGXF=    48 NGYF=   48 NGZF=   72
   support grid    NGXF=    48 NGYF=   48 NGZF=   72
   ions per type =               8  12
   NGX,Y,Z   is equivalent  to a cutoff of   8.30,  8.07,  8.52 a.u.
   NGXF,Y,Z  is equivalent  to a cutoff of  16.61, 16.15, 17.04 a.u.

 SYSTEM =  Alumina_orthorombic_cell_under_strain   
 POSCAR =     Al  O                                

 Startparameter for this run:
   NWRITE =      2    write-flag & timer
   PREC   = normal    normal or accurate (medium, high low for compatibility)
   ISTART =      0    job   : 0-new  1-cont  2-samecut
   ICHARG =      2    charge: 1-file 2-atom 10-const
   ISPIN  =      1    spin polarized calculation?
   LNONCOLLINEAR =      F non collinear calculations
   LSORBIT =      F    spin-orbit coupling
   INIWAV =      1    electr: 0-lowe 1-rand  2-diag
   LASPH  =      F    aspherical Exc in radial PAW
   METAGGA=      F    non-selfconsistent MetaGGA calc.

 Electronic Relaxation 1
   ENCUT  =  400.0 eV  29.40 Ry    5.42 a.u.   7.84  8.06 11.45*2*pi/ulx,y,z
   ENINI  =  400.0     initial cutoff
   ENAUG  =  605.4 eV  augmentation charge cutoff
   NELM   =    100;   NELMIN=  2; NELMDL= -5     # of ELM steps 
   EDIFF  = 0.1E-05   stopping-criterion for ELM
   LREAL  =      T    real-space projection
   NLSPLINE    = F    spline interpolate recip. space projectors
   LCOMPAT=      F    compatible to vasp.4.4
   GGA_COMPAT  = T    GGA compatible to vasp.4.4-vasp.4.6
   LMAXPAW     = -100 max onsite density
   LMAXMIX     =    2 max onsite mixed and CHGCAR
   VOSKOWN=      0    Vosko Wilk Nusair interpolation
   ROPT   =   -0.00050  -0.00050
 Ionic relaxation
   EDIFFG = -.1E-02   stopping-criterion for IOM
   NSW    =      0    number of steps for IOM
   NBLOCK =      1;   KBLOCK =      1    inner block; outer block 
   IBRION =     -1    ionic relax: 0-MD 1-quasi-New 2-CG
   NFREE  =      0    steps in history (QN), initial steepest desc. (CG)
   ISIF   =      2    stress and relaxation
   IWAVPR =     10    prediction:  0-non 1-charg 2-wave 3-comb
   ISYM   =      2    0-nonsym 1-usesym 2-fastsym
   LCORR  =      T    Harris-Foulkes like correction to forces

   POTIM  = 0.5000    time-step for ionic-motion
   TEIN   =    0.0    initial temperature
   TEBEG  =    0.0;   TEEND  =   0.0 temperature during run
   SMASS  =  -3.00    Nose mass-parameter (am)
   estimated Nose-frequenzy (Omega)   =  0.10E-29 period in steps = 0.13E+47 mass=  -0.528E-27a.u.
   SCALEE = 1.0000    scale energy and forces
   NPACO  =    256;   APACO  = 16.0  distance and # of slots for P.C.
   PSTRESS=    0.0 pullay stress

  Mass of Ions in am
   POMASS =  26.98 16.00
  Ionic Valenz
   ZVAL   =   3.00  6.00
  Atomic Wigner-Seitz radii
   RWIGS  =  -1.00 -1.00
  virtual crystal weights 
   VCA    =   1.00  1.00
   NELECT =      96.0000    total number of electrons
   NUPDOWN=      -1.0000    fix difference up-down

 DOS related values:
   EMIN   =  10.00;   EMAX   =-10.00  energy-range for DOS
   EFERMI =   0.00
   ISMEAR =     1;   SIGMA  =   0.03  broadening in eV -4-tet -1-fermi 0-gaus

 Electronic relaxation 2 (details)
   IALGO  =     38    algorithm
   LDIAG  =      T    sub-space diagonalisation (order eigenvalues)
   LSUBROT=      F    optimize rotation matrix (better conditioning)
   TURBO    =      0    0=normal 1=particle mesh
   IRESTART =      0    0=no restart 2=restart with 2 vectors
   NREBOOT  =      0    no. of reboots
   NMIN     =      0    reboot dimension
   EREF     =   0.00    reference energy to select bands
   IMIX   =      4    mixing-type and parameters
     AMIX     =   0.40;   BMIX     =  1.00
     AMIX_MAG =   1.60;   BMIX_MAG =  1.00
     AMIN     =   0.10
     WC   =   100.;   INIMIX=   1;  MIXPRE=   1;  MAXMIX= -45

 Intra band minimization:
   WEIMIN = 0.0000     energy-eigenvalue tresh-hold
   EBREAK =  0.42E-08  absolut break condition
   DEPER  =   0.30     relativ break condition  

   TIME   =   0.40     timestep for ELM

  volume/ion in A,a.u.               =       8.34        56.28
  Fermi-wavevector in a.u.,A,eV,Ry     =   1.361805  2.573438 25.232180  1.854513
  Thomas-Fermi vector in A             =   2.488349
 
 Write flags
   LWAVE        =      T    write WAVECAR
   LDOWNSAMPLE  =      F    k-point downsampling of WAVECAR
   LCHARG       =      T    write CHGCAR
   LVTOT        =      F    write LOCPOT, total local potential
   LVHAR        =      F    write LOCPOT, Hartree potential only
   LELF         =      F    write electronic localiz. function (ELF)
   LORBIT       =      0    0 simple, 1 ext, 2 COOP (PROOUT), +10 PAW based schemes


 Dipole corrections
   LMONO  =      F    monopole corrections only (constant potential shift)
   LDIPOL =      F    correct potential (dipole corrections)
   IDIPOL =      0    1-x, 2-y, 3-z, 4-all directions 
   EPSILON=  1.0000000 bulk dielectric constant

 Exchange correlation treatment:
   GGA     =    --    GGA type
   LEXCH   =     8    internal setting for exchange type
   VOSKOWN=      0    Vosko Wilk Nusair interpolation
   LHFCALC =     F    Hartree Fock is set to
   LHFONE  =     F    Hartree Fock one center treatment
   AEXX    =    0.0000 exact exchange contribution

 Linear response parameters
   LEPSILON=     F    determine dielectric tensor
   LRPA    =     F    only Hartree local field effects (RPA)
   LNABLA  =     F    use nabla operator in PAW spheres
   LVEL    =     F    velocity operator in full k-point grid
   LINTERFAST=   F  fast interpolation
   KINTER  =     0    interpolate to denser k-point grid
   CSHIFT  =0.1000    complex shift for real part using Kramers Kronig
   OMEGAMAX=  -1.0    maximum frequency
   DEG_THRESHOLD= 0.2000000E-02 threshold for treating states as degnerate
   RTIME   =   -0.100 relaxation time in fs
  (WPLASMAI=    0.000 imaginary part of plasma frequency in eV, 0.658/RTIME)
   DFIELD  = 0.0000000 0.0000000 0.0000000 field for delta impulse in time
 
 Orbital magnetization related:
   ORBITALMAG=     F  switch on orbital magnetization
   LCHIMAG   =     F  perturbation theory with respect to B field
   DQ        =  0.001000  dq finite difference perturbation B field
   LLRAUG    =     F  two centre corrections for induced B field



--------------------------------------------------------------------------------------------------------


 Static calculation
 charge density and potential will be updated during run
 non-spin polarized calculation
 Variant of blocked Davidson
 Davidson routine will perform the subspace rotation
 perform sub-space diagonalisation
    after iterative eigenvector-optimisation
 modified Broyden-mixing scheme, WC =      100.0
 initial mixing is a Kerker type mixing with AMIX =  0.4000 and BMIX =      1.0000
 Hartree-type preconditioning will be used
 using additional bands           11
 real space projection scheme for non local part
 use partial core corrections
 calculate Harris-corrections to forces 
   (improved forces if not selfconsistent)
 use gradient corrections 
 use of overlap-Matrix (Vanderbilt PP)
 Methfessel and Paxton  Order N= 1 SIGMA  =   0.03


--------------------------------------------------------------------------------------------------------


  energy-cutoff  :      400.00
  volume of cell :      166.78
      direct lattice vectors                 reciprocal lattice vectors
     4.804944559  0.000000000  0.000000000     0.208118947  0.000000000  0.000000000
     0.000000000  4.941604552  0.000000000     0.000000000  0.202363421  0.000000000
     0.000000000  0.000000000  7.024162707     0.000000000  0.000000000  0.142365723

  length of vectors
     4.804944559  4.941604552  7.024162707     0.208118947  0.202363421  0.142365723


 
 k-points in units of 2pi/SCALE and weight: k-points                                
   0.02601487  0.02529543  0.01779572       0.125
   0.07804460  0.02529543  0.01779572       0.125
   0.02601487  0.07588628  0.01779572       0.125
   0.07804460  0.07588628  0.01779572       0.125
   0.02601487  0.02529543  0.05338715       0.125
   0.07804460  0.02529543  0.05338715       0.125
   0.02601487  0.07588628  0.05338715       0.125
   0.07804460  0.07588628  0.05338715       0.125
 
 k-points in reciprocal lattice and weights: k-points                                
   0.12500000  0.12500000  0.12500000       0.125
   0.37500000  0.12500000  0.12500000       0.125
   0.12500000  0.37500000  0.12500000       0.125
   0.37500000  0.37500000  0.12500000       0.125
   0.12500000  0.12500000  0.37500000       0.125
   0.37500000  0.12500000  0.37500000       0.125
   0.12500000  0.37500000  0.37500000       0.125
   0.37500000  0.37500000  0.37500000       0.125
 
 position of ions in fractional coordinates (direct lattice) 
   0.25230024  0.03139637  0.38998858
   0.25230024  0.46860363  0.61001142
   0.24769976  0.53139637  0.11001141
   0.24769976  0.96860363  0.88998858
   0.74769973  0.96860363  0.61001142
   0.74769973  0.53139637  0.38998858
   0.75230027  0.46860363  0.88998858
   0.75230027  0.03139637  0.11001141
   0.10707275  0.10238975  0.65414766
   0.10707275  0.39761024  0.34585234
   0.39292724  0.60238973  0.84585234
   0.39292724  0.89761027  0.15414764
   0.89292727  0.89761027  0.34585234
   0.89292727  0.60238973  0.65414766
   0.60707273  0.39761024  0.15414764
   0.60707273  0.10238975  0.84585234
   0.05018837  0.25000000  0.00000000
   0.44981163  0.75000000  0.50000000
   0.94981160  0.75000000  0.00000000
   0.55018840  0.25000000  0.50000000
 
 position of ions in cartesian coordinates  (Angst):
   1.21228864  0.15514842  2.73934322
   1.21228864  2.31565384  4.28481949
   1.19018364  2.62595071  0.77273803
   1.19018364  4.78645612  6.25142457
   3.59265577  4.78645612  4.28481949
   3.59265577  2.62595071  2.73934322
   3.61476107  2.31565384  6.25142457
   3.61476107  0.15514842  0.77273803
   0.51447865  0.50596966  4.59483957
   0.51447865  1.96483258  2.42932313
   1.88799360  2.97677182  5.94140449
   1.88799360  4.43563500  1.08275812
   4.29046602  4.43563500  2.42932313
   4.29046602  2.97677182  4.59483957
   2.91695082  1.96483258  1.08275812
   2.91695082  0.50596966  5.94140449
   0.24115233  1.23540114  0.00000000
   2.16131997  3.70620341  3.51208135
   4.56379210  3.70620341  0.00000000
   2.64362474  1.23540114  3.51208135
 


--------------------------------------------------------------------------------------------------------


 k-point   1 :   0.1250 0.1250 0.1250  plane waves:    3014
 k-point   2 :   0.3750 0.1250 0.1250  plane waves:    3024
 k-point   3 :   0.1250 0.3750 0.1250  plane waves:    3033
 k-point   4 :   0.3750 0.3750 0.1250  plane waves:    3043
 k-point   5 :   0.1250 0.1250 0.3750  plane waves:    3023
 k-point   6 :   0.3750 0.1250 0.3750  plane waves:    3024
 k-point   7 :   0.1250 0.3750 0.3750  plane waves:    3022
 k-point   8 :   0.3750 0.3750 0.3750  plane waves:    3029

 maximum and minimum number of plane-waves per node :      3043     3014

 maximum number of plane-waves:      3043
 maximum index in each direction: 
   IXMAX=    7   IYMAX=    7   IZMAX=   11
   IXMIN=   -8   IYMIN=   -8   IZMIN=  -11


 serial   3D FFT for wavefunctions
 parallel 3D FFT for charge:
    minimum data exchange during FFTs selected (reduces bandwidth)


 total amount of memory used by VASP MPI-rank0    72497. kBytes
=======================================================================

   base      :      30000. kBytes
   nonlr-proj:       2131. kBytes
   fftplans  :       5804. kBytes
   grid      :      10312. kBytes
   one-center:         61. kBytes
   wavefun   :      24189. kBytes
 
     INWAV:  cpu time    0.0002: real time    0.0004
 Broyden mixing: mesh for mixing (old mesh)
   NGX = 15   NGY = 17   NGZ = 23
  (NGX  = 48   NGY  = 48   NGZ  = 72)
  gives a total of   5865 points

 initial charge density was supplied:
 charge density of overlapping atoms calculated
 number of electron      96.0000000 magnetization 
 keeping initial charge density in first step


--------------------------------------------------------------------------------------------------------


 Maximum index for non-local projection operator         1345
 Maximum index for augmentation-charges         4702 (set IRDMAX)


--------------------------------------------------------------------------------------------------------


 First call to EWALD:  gamma=   0.322
 Maximum number of real-space cells 3x 3x 2
 Maximum number of reciprocal cells 2x 3x 3

    FEWALD:  cpu time    0.0029: real time    0.0029


--------------------------------------- Iteration      1(   1)  ---------------------------------------


    POTLOK:  cpu time    0.0728: real time    0.0746
    SETDIJ:  cpu time    0.0198: real time    0.0198
     EDDAV:  cpu time    1.7884: real time    1.7890
       DOS:  cpu time    0.0013: real time    0.0013
    --------------------------------------------
      LOOP:  cpu time    1.8823: real time    1.8847

 eigenvalue-minimisations  :   944
 total energy-change (2. order) : 0.4480446E+03  (-0.4425854E+04)
 number of electron      96.0000000 magnetization 
 augmentation part       96.0000000 magnetization 

 Free energy of the ion-electron system (eV)
  ---------------------------------------------------
  alpha Z        PSCENC =       154.80864773
  Ewald energy   TEWEN  =     -4870.61604037
  -Hartree energ DENC   =     -1232.15522831
  -exchange      EXHF   =         0.00000000
  -V(xc)+E(xc)   XCENC  =       133.51384896
  PAW double counting   =      4688.19497969    -4454.14273673
  entropy T*S    EENTRO =         0.00018843
  eigenvalues    EBANDS =       412.97739489
  atomic energy  EATOM  =      5615.46358700
  Solvation  Ediel_sol  =         0.00000000
  ---------------------------------------------------
  free energy    TOTEN  =       448.04464128 eV

  energy without entropy =      448.04445285  energy(sigma->0) =      448.04457847


--------------------------------------------------------------------------------------------------------




--------------------------------------- Iteration      1(   2)  ---------------------------------------


     EDDAV:  cpu time    2.0631: real time    2.0637
       DOS:  cpu time    0.0010: real time    0.0010
    --------------------------------------------
      LOOP:  cpu time    2.0641: real time    2.0648

 eigenvalue-minimisations  :  1144
 total energy-change (2. order) :-0.5847460E+03  (-0.5707472E+03)
 number of electron      96.0000000 magnetization 
 augmentation part       96.0000000 magnetization 

 Free energy of the ion-electron system (eV)
  ---------------------------------------------------
  alpha Z        PSCENC =       154.80864773
  Ewald energy   TEWEN  =     -4870.61604037
  -Hartree energ DENC   =     -1232.15522831
  -exchange      EXHF   =         0.00000000
  -V(xc)+E(xc)   XCENC  =       133.51384896
  PAW double counting   =      4688.19497969    -4454.14273673
  entropy T*S    EENTRO =         0.00023988
  eigenvalues    EBANDS =      -171.76867529
  atomic energy  EATOM  =      5615.46358700
  Solvation  Ediel_sol  =         0.00000000
  ---------------------------------------------------
  free energy    TOTEN  =      -136.70137745 eV

  energy without entropy =     -136.70161733  energy(sigma->0) =     -136.70145741


--------------------------------------------------------------------------------------------------------




--------------------------------------- Iteration      1(   3)  ---------------------------------------


     EDDAV:  cpu time    2.0248: real time    2.0257
       DOS:  cpu time    0.0012: real time    0.0012
    --------------------------------------------
      LOOP:  cpu time    2.0260: real time    2.0269

 eigenvalue-minimisations  :  1120
 total energy-change (2. order) :-0.2700606E+02  (-0.2689964E+02)
 number of electron      96.0000000 magnetization 
 augmentation part       96.0000000 magnetization 

 Free energy of the ion-electron system (eV)
  ---------------------------------------------------
  alpha Z        PSCENC =       154.80864773
  Ewald energy   TEWEN  =     -4870.61604037
  -Hartree energ DENC   =     -1232.15522831
  -exchange      EXHF   =         0.00000000
  -V(xc)+E(xc)   XCENC  =       133.51384896
  PAW double counting   =      4688.19497969    -4454.14273673
  entropy T*S    EENTRO =         0.00026614
  eigenvalues    EBANDS =      -198.77475750
  atomic energy  EATOM  =      5615.46358700
  Solvation  Ediel_sol  =         0.00000000
  ---------------------------------------------------
  free energy    TOTEN  =      -163.70743340 eV

  energy without entropy =     -163.70769954  energy(sigma->0) =     -163.70752211


--------------------------------------------------------------------------------------------------------




--------------------------------------- Iteration      1(   4)  ---------------------------------------


     EDDAV:  cpu time    2.0327: real time    2.0332
       DOS:  cpu time    0.0010: real time    0.0010
    --------------------------------------------
      LOOP:  cpu time    2.0337: real time    2.0342

 eigenvalue-minimisations  :  1120
 total energy-change (2. order) :-0.2616894E+00  (-0.2610888E+00)
 number of electron      96.0000000 magnetization 
 augmentation part       96.0000000 magnetization 

 Free energy of the ion-electron system (eV)
  ---------------------------------------------------
  alpha Z        PSCENC =       154.80864773
  Ewald energy   TEWEN  =     -4870.61604037
  -Hartree energ DENC   =     -1232.15522831
  -exchange      EXHF   =         0.00000000
  -V(xc)+E(xc)   XCENC  =       133.51384896
  PAW double counting   =      4688.19497969    -4454.14273673
  entropy T*S    EENTRO =         0.00025986
  eigenvalues    EBANDS =      -199.03644061
  atomic energy  EATOM  =      5615.46358700
  Solvation  Ediel_sol  =         0.00000000
  ---------------------------------------------------
  free energy    TOTEN  =      -163.96912279 eV

  energy without entropy =     -163.96938265  energy(sigma->0) =     -163.96920941


--------------------------------------------------------------------------------------------------------




--------------------------------------- Iteration      1(   5)  ---------------------------------------


     EDDAV:  cpu time    1.9824: real time    1.9831
       DOS:  cpu time    0.0010: real time    0.0010
    CHARGE:  cpu time    0.1202: real time    0.1202
    MIXING:  cpu time    0.0026: real time    0.0026
    --------------------------------------------
      LOOP:  cpu time    2.1062: real time    2.1068

 eigenvalue-minimisations  :  1096
 total energy-change (2. order) :-0.4299692E-02  (-0.4294346E-02)
 number of electron      96.0000380 magnetization 
 augmentation part        9.3236458 magnetization 

 Broyden mixing:
  rms(total) = 0.24433E+01    rms(broyden)= 0.24424E+01
  rms(prec ) = 0.38281E+01
  weight for this iteration     100.00

 Free energy of the ion-electron system (eV)
  ---------------------------------------------------
  alpha Z        PSCENC =       154.80864773
  Ewald energy   TEWEN  =     -4870.61604037
  -Hartree energ DENC   =     -1232.15522831
  -exchange      EXHF   =         0.00000000
  -V(xc)+E(xc)   XCENC  =       133.51384896
  PAW double counting   =      4688.19497969    -4454.14273673
  entropy T*S    EENTRO =         0.00025996
  eigenvalues    EBANDS =      -199.04074040
  atomic energy  EATOM  =      5615.46358700
  Solvation  Ediel_sol  =         0.00000000
  ---------------------------------------------------
  free energy    TOTEN  =      -163.97342248 eV

  energy without entropy =     -163.97368244  energy(sigma->0) =     -163.97350913


--------------------------------------------------------------------------------------------------------




--------------------------------------- Iteration      1(   6)  ---------------------------------------


    POTLOK:  cpu time    0.0679: real time    0.0681
    SETDIJ:  cpu time    0.0197: real time    0.0197
     EDDAV:  cpu time    1.9283: real time    1.9289
       DOS:  cpu time    0.0012: real time    0.0012
    CHARGE:  cpu time    0.1201: real time    0.1201
    MIXING:  cpu time    0.0029: real time    0.0029
    --------------------------------------------
      LOOP:  cpu time    2.1401: real time    2.1409

 eigenvalue-minimisations  :  1056
 total energy-change (2. order) : 0.1604338E+02  (-0.6798098E+01)
 number of electron      96.0000326 magnetization 
 augmentation part        7.8987645 magnetization 

 Broyden mixing:
  rms(total) = 0.85081E+00    rms(broyden)= 0.84957E+00
  rms(prec ) = 0.10345E+01
  weight for this iteration     100.00

 eigenvalues of (default mixing * dielectric matrix)
  average eigenvalue GAMMA=   0.9635
  0.9635

 Free energy of the ion-electron system (eV)
  ---------------------------------------------------
  alpha Z        PSCENC =       154.80864773
  Ewald energy   TEWEN  =     -4870.61604037
  -Hartree energ DENC   =     -1417.87222746
  -exchange      EXHF   =         0.00000000
  -V(xc)+E(xc)   XCENC  =       146.63137187
  PAW double counting   =      6050.37088067    -5819.89083731
  entropy T*S    EENTRO =         0.00018849
  eigenvalues    EBANDS =        -6.82561565
  atomic energy  EATOM  =      5615.46358700
  Solvation  Ediel_sol  =         0.00000000
  ---------------------------------------------------
  free energy    TOTEN  =      -147.93004503 eV

  energy without entropy =     -147.93023352  energy(sigma->0) =     -147.93010786


--------------------------------------------------------------------------------------------------------




--------------------------------------- Iteration      1(   7)  ---------------------------------------


    POTLOK:  cpu time    0.0669: real time    0.0673
    SETDIJ:  cpu time    0.0197: real time    0.0197
     EDDAV:  cpu time    2.0684: real time    2.0686
       DOS:  cpu time    0.0010: real time    0.0010
    CHARGE:  cpu time    0.1182: real time    0.1183
    MIXING:  cpu time    0.0029: real time    0.0029
    --------------------------------------------
      LOOP:  cpu time    2.2772: real time    2.2778

 eigenvalue-minimisations  :  1160
 total energy-change (2. order) : 0.1095457E-01  (-0.1478626E+00)
 number of electron      96.0000325 magnetization 
 augmentation part        7.8033346 magnetization 

 Broyden mixing:
  rms(total) = 0.46537E+00    rms(broyden)= 0.46527E+00
  rms(prec ) = 0.57677E+00
  weight for this iteration     100.00

 eigenvalues of (default mixing * dielectric matrix)
  average eigenvalue GAMMA=   1.3210
  1.1875  1.4544

 Free energy of the ion-electron system (eV)
  ---------------------------------------------------
  alpha Z        PSCENC =       154.80864773
  Ewald energy   TEWEN  =     -4870.61604037
  -Hartree energ DENC   =     -1434.69184753
  -exchange      EXHF   =         0.00000000
  -V(xc)+E(xc)   XCENC  =       148.06978013
  PAW double counting   =      7096.09950220    -6865.48340206
  entropy T*S    EENTRO =         0.00018852
  eigenvalues    EBANDS =         8.43049392
  atomic energy  EATOM  =      5615.46358700
  Solvation  Ediel_sol  =         0.00000000
  ---------------------------------------------------
  free energy    TOTEN  =      -147.91909046 eV

  energy without entropy =     -147.91927898  energy(sigma->0) =     -147.91915330


--------------------------------------------------------------------------------------------------------




--------------------------------------- Iteration      1(   8)  ---------------------------------------


    POTLOK:  cpu time    0.0636: real time    0.0639
    SETDIJ:  cpu time    0.0197: real time    0.0197
     EDDAV:  cpu time    1.9355: real time    1.9358
       DOS:  cpu time    0.0011: real time    0.0011
    CHARGE:  cpu time    0.1183: real time    0.1183
    MIXING:  cpu time    0.0031: real time    0.0031
    --------------------------------------------
      LOOP:  cpu time    2.1412: real time    2.1419

 eigenvalue-minimisations  :  1072
 total energy-change (2. order) :-0.2306172E-02  (-0.1240393E-01)
 number of electron      96.0000326 magnetization 
 augmentation part        7.8279897 magnetization 

 Broyden mixing:
  rms(total) = 0.12868E+00    rms(broyden)= 0.12868E+00
  rms(prec ) = 0.17242E+00
  weight for this iteration     100.00

 eigenvalues of (default mixing * dielectric matrix)
  average eigenvalue GAMMA=   1.5677
  2.5376  1.0827  1.0827

 Free energy of the ion-electron system (eV)
  ---------------------------------------------------
  alpha Z        PSCENC =       154.80864773
  Ewald energy   TEWEN  =     -4870.61604037
  -Hartree energ DENC   =     -1439.97150026
  -exchange      EXHF   =         0.00000000
  -V(xc)+E(xc)   XCENC  =       148.79964182
  PAW double counting   =      7935.36306251    -7704.55225484
  entropy T*S    EENTRO =         0.00018858
  eigenvalues    EBANDS =        12.78327121
  atomic energy  EATOM  =      5615.46358700
  Solvation  Ediel_sol  =         0.00000000
  ---------------------------------------------------
  free energy    TOTEN  =      -147.92139663 eV

  energy without entropy =     -147.92158521  energy(sigma->0) =     -147.92145949


--------------------------------------------------------------------------------------------------------




--------------------------------------- Iteration      1(   9)  ---------------------------------------


    POTLOK:  cpu time    0.0647: real time    0.0650
    SETDIJ:  cpu time    0.0197: real time    0.0197
     EDDAV:  cpu time    2.0042: real time    2.0044
       DOS:  cpu time    0.0010: real time    0.0010
    CHARGE:  cpu time    0.1184: real time    0.1185
    MIXING:  cpu time    0.0031: real time    0.0031
    --------------------------------------------
      LOOP:  cpu time    2.2111: real time    2.2117

 eigenvalue-minimisations  :  1120
 total energy-change (2. order) :-0.1063570E-01  (-0.3323765E-02)
 number of electron      96.0000326 magnetization 
 augmentation part        7.8107418 magnetization 

 Broyden mixing:
  rms(total) = 0.37551E-01    rms(broyden)= 0.37545E-01
  rms(prec ) = 0.39459E-01
  weight for this iteration     100.00

 eigenvalues of (default mixing * dielectric matrix)
  average eigenvalue GAMMA=   1.7878
  1.0284  1.0284  2.5473  2.5473

 Free energy of the ion-electron system (eV)
  ---------------------------------------------------
  alpha Z        PSCENC =       154.80864773
  Ewald energy   TEWEN  =     -4870.61604037
  -Hartree energ DENC   =     -1446.83864024
  -exchange      EXHF   =         0.00000000
  -V(xc)+E(xc)   XCENC  =       149.47415790
  PAW double counting   =      8241.15994222    -8010.36124308
  entropy T*S    EENTRO =         0.00018861
  eigenvalues    EBANDS =        18.97736789
  atomic energy  EATOM  =      5615.46358700
  Solvation  Ediel_sol  =         0.00000000
  ---------------------------------------------------
  free energy    TOTEN  =      -147.93203233 eV

  energy without entropy =     -147.93222094  energy(sigma->0) =     -147.93209520


--------------------------------------------------------------------------------------------------------




--------------------------------------- Iteration      1(  10)  ---------------------------------------


    POTLOK:  cpu time    0.0647: real time    0.0650
    SETDIJ:  cpu time    0.0198: real time    0.0198
     EDDAV:  cpu time    1.9886: real time    1.9888
       DOS:  cpu time    0.0010: real time    0.0010
    CHARGE:  cpu time    0.1199: real time    0.1199
    MIXING:  cpu time    0.0036: real time    0.0036
    --------------------------------------------
      LOOP:  cpu time    2.1976: real time    2.1981

 eigenvalue-minimisations  :  1104
 total energy-change (2. order) :-0.1457115E-02  (-0.4769319E-03)
 number of electron      96.0000326 magnetization 
 augmentation part        7.8058551 magnetization 

 Broyden mixing:
  rms(total) = 0.13022E-01    rms(broyden)= 0.13012E-01
  rms(prec ) = 0.18256E-01
  weight for this iteration     100.00

 eigenvalues of (default mixing * dielectric matrix)
  average eigenvalue GAMMA=   1.5451
  2.6557  2.3597  1.0124  1.0124  0.6852

 Free energy of the ion-electron system (eV)
  ---------------------------------------------------
  alpha Z        PSCENC =       154.80864773
  Ewald energy   TEWEN  =     -4870.61604037
  -Hartree energ DENC   =     -1447.43365108
  -exchange      EXHF   =         0.00000000
  -V(xc)+E(xc)   XCENC  =       149.53128201
  PAW double counting   =      8119.06559094    -7888.28869390
  entropy T*S    EENTRO =         0.00018862
  eigenvalues    EBANDS =        19.53559960
  atomic energy  EATOM  =      5615.46358700
  Solvation  Ediel_sol  =         0.00000000
  ---------------------------------------------------
  free energy    TOTEN  =      -147.93348944 eV

  energy without entropy =     -147.93367807  energy(sigma->0) =     -147.93355232


--------------------------------------------------------------------------------------------------------




--------------------------------------- Iteration      1(  11)  ---------------------------------------


    POTLOK:  cpu time    0.0680: real time    0.0684
    SETDIJ:  cpu time    0.0198: real time    0.0198
     EDDAV:  cpu time    1.9874: real time    1.9879
       DOS:  cpu time    0.0011: real time    0.0011
    CHARGE:  cpu time    0.1160: real time    0.1160
    MIXING:  cpu time    0.0035: real time    0.0034
    --------------------------------------------
      LOOP:  cpu time    2.1959: real time    2.1967

 eigenvalue-minimisations  :  1112
 total energy-change (2. order) : 0.2481890E-03  (-0.9193768E-04)
 number of electron      96.0000326 magnetization 
 augmentation part        7.8093758 magnetization 

 Broyden mixing:
  rms(total) = 0.86125E-02    rms(broyden)= 0.86115E-02
  rms(prec ) = 0.10216E-01
  weight for this iteration     100.00

 eigenvalues of (default mixing * dielectric matrix)
  average eigenvalue GAMMA=   1.5679
  2.8059  2.4720  1.0232  1.0232  1.0417  1.0417

 Free energy of the ion-electron system (eV)
  ---------------------------------------------------
  alpha Z        PSCENC =       154.80864773
  Ewald energy   TEWEN  =     -4870.61604037
  -Hartree energ DENC   =     -1447.13266099
  -exchange      EXHF   =         0.00000000
  -V(xc)+E(xc)   XCENC  =       149.51116244
  PAW double counting   =      8123.34814928    -7892.56277111
  entropy T*S    EENTRO =         0.00018862
  eigenvalues    EBANDS =        19.24649614
  atomic energy  EATOM  =      5615.46358700
  Solvation  Ediel_sol  =         0.00000000
  ---------------------------------------------------
  free energy    TOTEN  =      -147.93324126 eV

  energy without entropy =     -147.93342988  energy(sigma->0) =     -147.93330413


--------------------------------------------------------------------------------------------------------




--------------------------------------- Iteration      1(  12)  ---------------------------------------


    POTLOK:  cpu time    0.0649: real time    0.0653
    SETDIJ:  cpu time    0.0197: real time    0.0197
     EDDAV:  cpu time    1.9899: real time    1.9901
       DOS:  cpu time    0.0010: real time    0.0010
    CHARGE:  cpu time    0.1161: real time    0.1161
    MIXING:  cpu time    0.0036: real time    0.0036
    --------------------------------------------
      LOOP:  cpu time    2.1953: real time    2.1958

 eigenvalue-minimisations  :  1112
 total energy-change (2. order) :-0.1217242E-04  (-0.5140313E-04)
 number of electron      96.0000326 magnetization 
 augmentation part        7.8099190 magnetization 

 Broyden mixing:
  rms(total) = 0.22996E-02    rms(broyden)= 0.22915E-02
  rms(prec ) = 0.32387E-02
  weight for this iteration     100.00

 eigenvalues of (default mixing * dielectric matrix)
  average eigenvalue GAMMA=   1.5298
  2.8427  2.4512  1.2767  1.0633  1.0633  1.0056  1.0056

 Free energy of the ion-electron system (eV)
  ---------------------------------------------------
  alpha Z        PSCENC =       154.80864773
  Ewald energy   TEWEN  =     -4870.61604037
  -Hartree energ DENC   =     -1447.11010704
  -exchange      EXHF   =         0.00000000
  -V(xc)+E(xc)   XCENC  =       149.51054436
  PAW double counting   =      8102.04900133    -7871.26599165
  entropy T*S    EENTRO =         0.00018862
  eigenvalues    EBANDS =        19.22691660
  atomic energy  EATOM  =      5615.46358700
  Solvation  Ediel_sol  =         0.00000000
  ---------------------------------------------------
  free energy    TOTEN  =      -147.93325343 eV

  energy without entropy =     -147.93344204  energy(sigma->0) =     -147.93331630


--------------------------------------------------------------------------------------------------------




--------------------------------------- Iteration      1(  13)  ---------------------------------------


    POTLOK:  cpu time    0.0648: real time    0.0650
    SETDIJ:  cpu time    0.0198: real time    0.0198
     EDDAV:  cpu time    1.9782: real time    1.9787
       DOS:  cpu time    0.0011: real time    0.0011
    CHARGE:  cpu time    0.1160: real time    0.1160
    MIXING:  cpu time    0.0038: real time    0.0038
    --------------------------------------------
      LOOP:  cpu time    2.1837: real time    2.1845

 eigenvalue-minimisations  :  1112
 total energy-change (2. order) : 0.6530215E-05  (-0.8738077E-05)
 number of electron      96.0000326 magnetization 
 augmentation part        7.8111438 magnetization 

 Broyden mixing:
  rms(total) = 0.10366E-02    rms(broyden)= 0.10351E-02
  rms(prec ) = 0.13553E-02
  weight for this iteration     100.00

 eigenvalues of (default mixing * dielectric matrix)
  average eigenvalue GAMMA=   1.5104
  2.8396  2.4312  1.8406  1.0402  1.0402  0.8706  1.0104  1.0104

 Free energy of the ion-electron system (eV)
  ---------------------------------------------------
  alpha Z        PSCENC =       154.80864773
  Ewald energy   TEWEN  =     -4870.61604037
  -Hartree energ DENC   =     -1446.96166078
  -exchange      EXHF   =         0.00000000
  -V(xc)+E(xc)   XCENC  =       149.49993965
  PAW double counting   =      8101.05552624    -7870.26827858
  entropy T*S    EENTRO =         0.00018862
  eigenvalues    EBANDS =        19.08484360
  atomic energy  EATOM  =      5615.46358700
  Solvation  Ediel_sol  =         0.00000000
  ---------------------------------------------------
  free energy    TOTEN  =      -147.93324690 eV

  energy without entropy =     -147.93343552  energy(sigma->0) =     -147.93330977


--------------------------------------------------------------------------------------------------------




--------------------------------------- Iteration      1(  14)  ---------------------------------------


    POTLOK:  cpu time    0.0645: real time    0.0649
    SETDIJ:  cpu time    0.0198: real time    0.0198
     EDDAV:  cpu time    1.9685: real time    1.9689
       DOS:  cpu time    0.0010: real time    0.0010
    CHARGE:  cpu time    0.1159: real time    0.1159
    MIXING:  cpu time    0.0040: real time    0.0040
    --------------------------------------------
      LOOP:  cpu time    2.1737: real time    2.1745

 eigenvalue-minimisations  :  1120
 total energy-change (2. order) : 0.1079802E-05  (-0.1187857E-05)
 number of electron      96.0000326 magnetization 
 augmentation part        7.8107657 magnetization 

 Broyden mixing:
  rms(total) = 0.34949E-03    rms(broyden)= 0.34896E-03
  rms(prec ) = 0.42482E-03
  weight for this iteration     100.00

 eigenvalues of (default mixing * dielectric matrix)
  average eigenvalue GAMMA=   1.5320
  2.9107  2.5398  2.2232  0.9785  1.0625  1.0492  1.0492  0.9875  0.9875

 Free energy of the ion-electron system (eV)
  ---------------------------------------------------
  alpha Z        PSCENC =       154.80864773
  Ewald energy   TEWEN  =     -4870.61604037
  -Hartree energ DENC   =     -1447.00640879
  -exchange      EXHF   =         0.00000000
  -V(xc)+E(xc)   XCENC  =       149.50250333
  PAW double counting   =      8100.20046194    -7869.41380948
  entropy T*S    EENTRO =         0.00018862
  eigenvalues    EBANDS =        19.12762422
  atomic energy  EATOM  =      5615.46358700
  Solvation  Ediel_sol  =         0.00000000
  ---------------------------------------------------
  free energy    TOTEN  =      -147.93324582 eV

  energy without entropy =     -147.93343444  energy(sigma->0) =     -147.93330869


--------------------------------------------------------------------------------------------------------




--------------------------------------- Iteration      1(  15)  ---------------------------------------


    POTLOK:  cpu time    0.0644: real time    0.0648
    SETDIJ:  cpu time    0.0197: real time    0.0197
     EDDAV:  cpu time    1.3754: real time    1.3756
       DOS:  cpu time    0.0010: real time    0.0010
    --------------------------------------------
      LOOP:  cpu time    1.4605: real time    1.4611

 eigenvalue-minimisations  :   696
 total energy-change (2. order) : 0.8988991E-07  (-0.3399798E-07)
 number of electron      96.0000326 magnetization 
 augmentation part        7.8107657 magnetization 

 Free energy of the ion-electron system (eV)
  ---------------------------------------------------
  alpha Z        PSCENC =       154.80864773
  Ewald energy   TEWEN  =     -4870.61604037
  -Hartree energ DENC   =     -1447.01412041
  -exchange      EXHF   =         0.00000000
  -V(xc)+E(xc)   XCENC  =       149.50276813
  PAW double counting   =      8099.39294109    -7868.60606759
  entropy T*S    EENTRO =         0.00018862
  eigenvalues    EBANDS =        19.13485008
  atomic energy  EATOM  =      5615.46358700
  Solvation  Ediel_sol  =         0.00000000
  ---------------------------------------------------
  free energy    TOTEN  =      -147.93324573 eV

  energy without entropy =     -147.93343435  energy(sigma->0) =     -147.93330860


--------------------------------------------------------------------------------------------------------




 average (electrostatic) potential at core
  the test charge radii are     1.0406  0.7215
  (the norm of the test charge is              1.0000)
       1 -71.1886       2 -71.1886       3 -71.1886       4 -71.1886       5 -71.1886
       6 -71.1886       7 -71.1886       8 -71.1886       9 -66.7479      10 -66.7479
      11 -66.7479      12 -66.7479      13 -66.7479      14 -66.7479      15 -66.7479
      16 -66.7479      17 -66.6148      18 -66.6148      19 -66.6148      20 -66.6148
 
 
 
 E-fermi :   6.5958     XC(G=0): -11.8552     alpha+bet :-17.1618


 k-point     1 :       0.1250    0.1250    0.1250
  band No.  band energies     occupation 
      1     -12.6396      2.00000
      2     -11.6338      2.00000
      3     -10.7804      2.00000
      4     -10.7321      2.00000
      5     -10.6715      2.00000
      6     -10.3148      2.00000
      7     -10.1399      2.00000
      8      -9.9769      2.00000
      9      -9.9332      2.00000
     10      -9.8721      2.00000
     11      -9.7494      2.00000
     12      -9.5337      2.00000
     13       0.2054      2.00000
     14       0.3911      2.00000
     15       0.4529      2.00000
     16       0.5991      2.00000
     17       1.1313      2.00000
     18       1.2471      2.00000
     19       1.2846      2.00000
     20       1.5798      2.00000
     21       1.7665      2.00000
     22       2.1353      2.00000
     23       2.2107      2.00000
     24       2.4459      2.00000
     25       2.4966      2.00000
     26       2.9040      2.00000
     27       3.4883      2.00000
     28       3.7002      2.00000
     29       3.9064      2.00000
     30       4.2146      2.00000
     31       4.2643      2.00000
     32       4.5432      2.00000
     33       4.5853      2.00000
     34       4.9023      2.00000
     35       5.0909      2.00000
     36       5.2703      2.00000
     37       5.3881      2.00000
     38       5.3916      2.00000
     39       5.5082      2.00000
     40       5.6765      2.00000
     41       5.7824      2.00000
     42       5.8528      2.00000
     43       5.9323      2.00000
     44       6.0909      2.00000
     45       6.1943      2.00000
     46       6.2687      2.00000
     47       6.4326      2.00000
     48       6.5740      1.99998
     49      12.8582      0.00000
     50      15.2367      0.00000
     51      15.4038      0.00000
     52      15.7561      0.00000
     53      15.9949      0.00000
     54      16.6559      0.00000
     55      16.8714      0.00000
     56      16.9585      0.00000
     57      17.2484      0.00000
     58      17.4472      0.00000
     59      17.6955      0.00000

 k-point     2 :       0.3750    0.1250    0.1250
  band No.  band energies     occupation 
      1     -12.2151      2.00000
      2     -11.5150      2.00000
      3     -11.2538      2.00000
      4     -10.8283      2.00000
      5     -10.5206      2.00000
      6     -10.4088      2.00000
      7     -10.2422      2.00000
      8     -10.0988      2.00000
      9     -10.0300      2.00000
     10      -9.8668      2.00000
     11      -9.6745      2.00000
     12      -9.5561      2.00000
     13       0.1580      2.00000
     14       0.4134      2.00000
     15       0.5308      2.00000
     16       0.8026      2.00000
     17       0.8985      2.00000
     18       1.1948      2.00000
     19       1.3499      2.00000
     20       1.4018      2.00000
     21       1.7343      2.00000
     22       2.2971      2.00000
     23       2.4882      2.00000
     24       2.7678      2.00000
     25       2.8628      2.00000
     26       3.3303      2.00000
     27       3.6984      2.00000
     28       3.8434      2.00000
     29       4.1204      2.00000
     30       4.1486      2.00000
     31       4.2485      2.00000
     32       4.3893      2.00000
     33       4.5632      2.00000
     34       4.8049      2.00000
     35       4.9124      2.00000
     36       5.0952      2.00000
     37       5.1881      2.00000
     38       5.3541      2.00000
     39       5.4399      2.00000
     40       5.5985      2.00000
     41       5.7669      2.00000
     42       5.8378      2.00000
     43       5.9206      2.00000
     44       5.9520      2.00000
     45       6.0982      2.00000
     46       6.1100      2.00000
     47       6.4729      2.00000
     48       6.4865      2.00000
     49      14.1706      0.00000
     50      15.1160      0.00000
     51      15.2097      0.00000
     52      15.5617      0.00000
     53      15.7561      0.00000
     54      16.1341      0.00000
     55      16.4720      0.00000
     56      16.9426      0.00000
     57      17.1462      0.00000
     58      17.2422      0.00000
     59      17.2926      0.00000

 k-point     3 :       0.1250    0.3750    0.1250
  band No.  band energies     occupation 
      1     -12.2329      2.00000
      2     -11.5247      2.00000
      3     -11.2881      2.00000
      4     -10.7371      2.00000
      5     -10.5168      2.00000
      6     -10.4496      2.00000
      7     -10.2451      2.00000
      8     -10.1639      2.00000
      9      -9.9221      2.00000
     10      -9.7824      2.00000
     11      -9.7473      2.00000
     12      -9.6482      2.00000
     13       0.3159      2.00000
     14       0.4928      2.00000
     15       0.6428      2.00000
     16       0.9174      2.00000
     17       1.0442      2.00000
     18       1.3859      2.00000
     19       1.6041      2.00000
     20       1.8873      2.00000
     21       2.0994      2.00000
     22       2.2938      2.00000
     23       2.3606      2.00000
     24       2.7061      2.00000
     25       2.8912      2.00000
     26       3.1590      2.00000
     27       3.4035      2.00000
     28       3.4769      2.00000
     29       3.8368      2.00000
     30       3.8826      2.00000
     31       4.0155      2.00000
     32       4.1387      2.00000
     33       4.5373      2.00000
     34       4.7025      2.00000
     35       4.8842      2.00000
     36       5.0264      2.00000
     37       5.0773      2.00000
     38       5.2544      2.00000
     39       5.3285      2.00000
     40       5.4534      2.00000
     41       5.5675      2.00000
     42       5.6348      2.00000
     43       5.8441      2.00000
     44       5.9883      2.00000
     45       6.2228      2.00000
     46       6.3207      2.00000
     47       6.4526      2.00000
     48       6.5084      2.00002
     49      14.1674      0.00000
     50      15.3049      0.00000
     51      15.6325      0.00000
     52      15.7311      0.00000
     53      15.7888      0.00000
     54      15.9762      0.00000
     55      16.5747      0.00000
     56      16.9439      0.00000
     57      17.3978      0.00000
     58      17.5730      0.00000
     59      17.7153      0.00000

 k-point     4 :       0.3750    0.3750    0.1250
  band No.  band energies     occupation 
      1     -11.8419      2.00000
      2     -11.2167      2.00000
      3     -11.2089      2.00000
      4     -11.0107      2.00000
      5     -10.5949      2.00000
      6     -10.5010      2.00000
      7     -10.4505      2.00000
      8     -10.3868      2.00000
      9      -9.9252      2.00000
     10      -9.8769      2.00000
     11      -9.8385      2.00000
     12      -9.7023      2.00000
     13       0.5428      2.00000
     14       0.6124      2.00000
     15       0.7061      2.00000
     16       0.9207      2.00000
     17       1.2243      2.00000
     18       1.4655      2.00000
     19       1.7277      2.00000
     20       1.8978      2.00000
     21       2.1131      2.00000
     22       2.3220      2.00000
     23       2.4353      2.00000
     24       2.8901      2.00000
     25       3.0774      2.00000
     26       3.1663      2.00000
     27       3.3731      2.00000
     28       3.5730      2.00000
     29       3.6807      2.00000
     30       3.8822      2.00000
     31       4.0671      2.00000
     32       4.2768      2.00000
     33       4.5064      2.00000
     34       4.6148      2.00000
     35       4.9427      2.00000
     36       4.9609      2.00000
     37       5.0502      2.00000
     38       5.1833      2.00000
     39       5.3153      2.00000
     40       5.4455      2.00000
     41       5.4695      2.00000
     42       5.6690      2.00000
     43       5.7443      2.00000
     44       5.8361      2.00000
     45       6.0566      2.00000
     46       6.2534      2.00000
     47       6.3862      2.00000
     48       6.4511      2.00000
     49      15.0113      0.00000
     50      15.3579      0.00000
     51      15.4906      0.00000
     52      15.6718      0.00000
     53      16.0362      0.00000
     54      16.1882      0.00000
     55      16.3894      0.00000
     56      16.5570      0.00000
     57      16.9302      0.00000
     58      17.1082      0.00000
     59      17.2668      0.00000

 k-point     5 :       0.1250    0.1250    0.3750
  band No.  band energies     occupation 
      1     -12.4387      2.00000
      2     -12.0685      2.00000
      3     -10.6938      2.00000
      4     -10.6107      2.00000
      5     -10.4581      2.00000
      6     -10.3407      2.00000
      7     -10.2961      2.00000
      8      -9.9945      2.00000
      9      -9.8766      2.00000
     10      -9.8022      2.00000
     11      -9.7650      2.00000
     12      -9.6172      2.00000
     13       0.1711      2.00000
     14       0.3005      2.00000
     15       0.5355      2.00000
     16       0.6579      2.00000
     17       0.8332      2.00000
     18       0.9066      2.00000
     19       1.4065      2.00000
     20       1.4970      2.00000
     21       1.8918      2.00000
     22       1.9928      2.00000
     23       2.3149      2.00000
     24       2.6397      2.00000
     25       2.9227      2.00000
     26       3.2945      2.00000
     27       3.5967      2.00000
     28       3.6770      2.00000
     29       3.9039      2.00000
     30       4.1689      2.00000
     31       4.1902      2.00000
     32       4.3788      2.00000
     33       4.6185      2.00000
     34       4.9527      2.00000
     35       5.0860      2.00000
     36       5.2241      2.00000
     37       5.2603      2.00000
     38       5.3405      2.00000
     39       5.3872      2.00000
     40       5.5380      2.00000
     41       5.6726      2.00000
     42       5.7579      2.00000
     43       5.9217      2.00000
     44       6.1195      2.00000
     45       6.2716      2.00000
     46       6.3561      2.00000
     47       6.4720      2.00000
     48       6.4858      2.00000
     49      13.5527      0.00000
     50      14.5095      0.00000
     51      15.8182      0.00000
     52      16.2397      0.00000
     53      16.2818      0.00000
     54      16.5017      0.00000
     55      16.7129      0.00000
     56      16.8797      0.00000
     57      17.0273      0.00000
     58      17.1806      0.00000
     59      17.5646      0.00000

 k-point     6 :       0.3750    0.1250    0.3750
  band No.  band energies     occupation 
      1     -12.0324      2.00000
      2     -11.7093      2.00000
      3     -11.2922      2.00000
      4     -11.0512      2.00000
      5     -10.4219      2.00000
      6     -10.3332      2.00000
      7     -10.2382      2.00000
      8     -10.1069      2.00000
      9      -9.9150      2.00000
     10      -9.7780      2.00000
     11      -9.7105      2.00000
     12      -9.5919      2.00000
     13       0.0763      2.00000
     14       0.2265      2.00000
     15       0.3218      2.00000
     16       0.3637      2.00000
     17       1.1051      2.00000
     18       1.3811      2.00000
     19       1.4969      2.00000
     20       1.5857      2.00000
     21       2.0416      2.00000
     22       2.3696      2.00000
     23       2.6341      2.00000
     24       2.9126      2.00000
     25       3.0617      2.00000
     26       3.2114      2.00000
     27       3.3829      2.00000
     28       3.8080      2.00000
     29       4.0422      2.00000
     30       4.0530      2.00000
     31       4.2325      2.00000
     32       4.4768      2.00000
     33       4.5914      2.00000
     34       4.7998      2.00000
     35       4.8758      2.00000
     36       5.0361      2.00000
     37       5.1343      2.00000
     38       5.3197      2.00000
     39       5.3684      2.00000
     40       5.4826      2.00000
     41       5.6519      2.00000
     42       5.8027      2.00000
     43       6.0051      2.00000
     44       6.0640      2.00000
     45       6.2123      2.00000
     46       6.2736      2.00000
     47       6.3715      2.00000
     48       6.4017      2.00000
     49      14.5924      0.00000
     50      15.0214      0.00000
     51      15.5470      0.00000
     52      15.6905      0.00000
     53      15.7977      0.00000
     54      16.2255      0.00000
     55      16.4946      0.00000
     56      16.6986      0.00000
     57      16.9341      0.00000
     58      17.0920      0.00000
     59      17.3454      0.00000

 k-point     7 :       0.1250    0.3750    0.3750
  band No.  band energies     occupation 
      1     -12.0442      2.00000
      2     -11.6973      2.00000
      3     -11.3661      2.00000
      4     -11.0768      2.00000
      5     -10.3640      2.00000
      6     -10.2082      2.00000
      7     -10.1654      2.00000
      8     -10.0877      2.00000
      9      -9.8853      2.00000
     10      -9.8480      2.00000
     11      -9.8125      2.00000
     12      -9.6766      2.00000
     13       0.3448      2.00000
     14       0.4241      2.00000
     15       0.6432      2.00000
     16       0.6673      2.00000
     17       1.1600      2.00000
     18       1.4345      2.00000
     19       1.4754      2.00000
     20       1.8065      2.00000
     21       1.9945      2.00000
     22       2.1337      2.00000
     23       2.5391      2.00000
     24       2.7416      2.00000
     25       2.8722      2.00000
     26       3.3036      2.00000
     27       3.5608      2.00000
     28       3.6366      2.00000
     29       3.8472      2.00000
     30       3.9509      2.00000
     31       4.2716      2.00000
     32       4.4392      2.00000
     33       4.5330      2.00000
     34       4.5889      2.00000
     35       4.7178      2.00000
     36       4.9498      2.00000
     37       5.0834      2.00000
     38       5.2453      2.00000
     39       5.2970      2.00000
     40       5.3730      2.00000
     41       5.6129      2.00000
     42       5.6781      2.00000
     43       5.8136      2.00000
     44       5.8819      2.00000
     45       6.2036      2.00000
     46       6.2644      2.00000
     47       6.3773      2.00000
     48       6.4341      2.00000
     49      14.5406      0.00000
     50      15.1279      0.00000
     51      15.6188      0.00000
     52      15.7047      0.00000
     53      15.9855      0.00000
     54      16.3075      0.00000
     55      16.5342      0.00000
     56      16.9135      0.00000
     57      17.0406      0.00000
     58      17.1220      0.00000
     59      17.4334      0.00000

 k-point     8 :       0.3750    0.3750    0.3750
  band No.  band energies     occupation 
      1     -11.6732      2.00000
      2     -11.3794      2.00000
      3     -11.1063      2.00000
      4     -11.0630      2.00000
      5     -10.7271      2.00000
      6     -10.6878      2.00000
      7     -10.4987      2.00000
      8     -10.3578      2.00000
      9      -9.8679      2.00000
     10      -9.8068      2.00000
     11      -9.7151      2.00000
     12      -9.6365      2.00000
     13       0.4639      2.00000
     14       0.4981      2.00000
     15       0.6980      2.00000
     16       0.7519      2.00000
     17       1.3591      2.00000
     18       1.5582      2.00000
     19       1.5623      2.00000
     20       1.8983      2.00000
     21       2.2459      2.00000
     22       2.3388      2.00000
     23       2.6550      2.00000
     24       2.7009      2.00000
     25       2.8724      2.00000
     26       3.0945      2.00000
     27       3.3954      2.00000
     28       3.4449      2.00000
     29       4.0190      2.00000
     30       4.0616      2.00000
     31       4.1844      2.00000
     32       4.3721      2.00000
     33       4.6500      2.00000
     34       4.6900      2.00000
     35       4.9069      2.00000
     36       4.9248      2.00000
     37       4.9777      2.00000
     38       5.1726      2.00000
     39       5.2118      2.00000
     40       5.4025      2.00000
     41       5.5638      2.00000
     42       5.6510      2.00000
     43       5.8550      2.00000
     44       5.9147      2.00000
     45       5.9944      2.00000
     46       6.1774      2.00000
     47       6.2430      2.00000
     48       6.3169      2.00000
     49      15.2089      0.00000
     50      15.4079      0.00000
     51      15.5276      0.00000
     52      15.6130      0.00000
     53      15.9134      0.00000
     54      15.9962      0.00000
     55      16.5435      0.00000
     56      16.6763      0.00000
     57      16.8708      0.00000
     58      16.9221      0.00000
     59      17.1926      0.00000


--------------------------------------------------------------------------------------------------------


 soft charge-density along one line, spin component           1
         0         1         2         3         4         5         6         7         8         9
 total charge-density along one line
 
 pseudopotential strength for first ion, spin component:           1
  8.378  14.278   0.002  -0.001  -0.000   0.008  -0.003  -0.000
 14.278  24.331   0.004  -0.002  -0.000   0.013  -0.005  -0.000
  0.002   0.004   1.982  -0.000   0.000   5.706  -0.000   0.001
 -0.001  -0.002  -0.000   1.982  -0.000  -0.000   5.706  -0.001
 -0.000  -0.000   0.000  -0.000   1.982   0.001  -0.001   5.706
  0.008   0.013   5.706  -0.000   0.001  16.347  -0.001   0.002
 -0.003  -0.005  -0.000   5.706  -0.001  -0.001  16.347  -0.002
 -0.000  -0.000   0.001  -0.001   5.706   0.002  -0.002  16.346
 total augmentation occupancy for first ion, spin component:           1
  5.271  -1.905  -0.191   0.112   0.012   0.027  -0.020  -0.002
 -1.905   0.724   0.063  -0.058  -0.005  -0.009   0.009   0.001
 -0.191   0.063   1.551   0.053  -0.076  -0.150  -0.007   0.010
  0.112  -0.058   0.053   1.447   0.095  -0.008  -0.139  -0.011
  0.012  -0.005  -0.076   0.095   1.604   0.010  -0.011  -0.157
  0.027  -0.009  -0.150  -0.008   0.010   0.016   0.001  -0.001
 -0.020   0.009  -0.007  -0.139  -0.011   0.001   0.015   0.001
 -0.002   0.001   0.010  -0.011  -0.157  -0.001   0.001   0.017


------------------------ aborting loop because EDIFF is reached ----------------------------------------


    CHARGE:  cpu time    0.1162: real time    0.1165
    FORLOC:  cpu time    0.0195: real time    0.0196
    FORNL :  cpu time    0.5723: real time    0.5726
    STRESS:  cpu time    1.7386: real time    1.7395
    FORCOR:  cpu time    0.0897: real time    0.0898
    FORHAR:  cpu time    0.0310: real time    0.0310
    MIXING:  cpu time    0.0048: real time    0.0048
    OFIELD:  cpu time    0.0000: real time    0.0000

  FORCE on cell =-STRESS in cart. coord.  units (eV):
  Direction    XX          YY          ZZ          XY          YZ          ZX
  --------------------------------------------------------------------------------------
  Alpha Z   154.80865   154.80865   154.80865
  Ewald   -1580.21848 -1627.71175 -1662.69830    -0.00000     0.00000    -0.00000
  Hartree   485.85002   475.20515   485.96825     0.00000     0.00000    -0.00000
  E(xc)    -444.12362  -444.01792  -443.55474     0.00000    -0.00000    -0.00000
  Local    -269.72330  -213.72588  -195.50948    -0.00000    -0.00001     0.00000
  n-local  -175.35807  -177.29211  -183.13028     0.12300     0.11505     0.06174
  augment    76.16391    76.34473    77.13651     0.00000    -0.00000    -0.00000
  Kinetic  1752.39046  1756.17550  1766.77872    -0.46312    -0.64738    -0.23679
  Fock        0.00000     0.00000     0.00000     0.00000     0.00000     0.00000
  -------------------------------------------------------------------------------------
  Total      -0.21044    -0.21363    -0.20068     0.00000     0.00000     0.00000
  in kB      -2.02155    -2.05221    -1.92782     0.00000     0.00000     0.00000
  external pressure =       -2.00 kB  Pullay stress =        0.00 kB


 VOLUME and BASIS-vectors are now :
 -----------------------------------------------------------------------------
  energy-cutoff  :      400.00
  volume of cell :      166.78
      direct lattice vectors                 reciprocal lattice vectors
     4.804944559  0.000000000  0.000000000     0.208118947  0.000000000  0.000000000
     0.000000000  4.941604552  0.000000000     0.000000000  0.202363421  0.000000000
     0.000000000  0.000000000  7.024162707     0.000000000  0.000000000  0.142365723

  length of vectors
     4.804944559  4.941604552  7.024162707     0.208118947  0.202363421  0.142365723


 FORCES acting on ions
    electron-ion (+dipol)            ewald-force                    non-local-force                 convergence-correction
 -----------------------------------------------------------------------------------------------
   0.339E+01 -.298E+01 0.165E+02   -.328E+01 0.705E+00 -.157E+02   -.105E+00 0.228E+01 -.781E+00   0.120E-03 -.201E-04 0.135E-03
   0.339E+01 0.298E+01 -.165E+02   -.328E+01 -.705E+00 0.157E+02   -.105E+00 -.228E+01 0.781E+00   0.120E-03 0.201E-04 -.134E-03
   -.339E+01 -.298E+01 -.165E+02   0.328E+01 0.705E+00 0.157E+02   0.105E+00 0.228E+01 0.781E+00   -.120E-03 -.201E-04 -.135E-03
   -.339E+01 0.298E+01 0.165E+02   0.328E+01 -.705E+00 -.157E+02   0.105E+00 -.228E+01 -.781E+00   -.120E-03 0.201E-04 0.135E-03
   -.339E+01 0.298E+01 -.165E+02   0.328E+01 -.705E+00 0.157E+02   0.105E+00 -.228E+01 0.781E+00   -.120E-03 0.201E-04 -.134E-03
   -.339E+01 -.298E+01 0.165E+02   0.328E+01 0.705E+00 -.157E+02   0.105E+00 0.228E+01 -.781E+00   -.120E-03 -.201E-04 0.135E-03
   0.339E+01 0.298E+01 0.165E+02   -.328E+01 -.705E+00 -.157E+02   -.105E+00 -.228E+01 -.781E+00   0.120E-03 0.201E-04 0.135E-03
   0.339E+01 -.298E+01 -.165E+02   -.328E+01 0.705E+00 0.157E+02   -.105E+00 0.228E+01 0.781E+00   0.120E-03 -.201E-04 -.135E-03
   0.674E+01 0.329E+01 -.185E+02   -.545E+01 -.259E+01 0.194E+02   -.129E+01 -.699E+00 -.986E+00   -.141E-03 0.253E-04 -.695E-03
   0.674E+01 -.329E+01 0.185E+02   -.545E+01 0.259E+01 -.194E+02   -.129E+01 0.699E+00 0.986E+00   -.141E-03 -.253E-04 0.696E-03
   -.674E+01 0.329E+01 0.185E+02   0.545E+01 -.259E+01 -.194E+02   0.129E+01 -.699E+00 0.986E+00   0.141E-03 0.251E-04 0.696E-03
   -.674E+01 -.329E+01 -.185E+02   0.545E+01 0.259E+01 0.194E+02   0.129E+01 0.699E+00 -.986E+00   0.141E-03 -.250E-04 -.697E-03
   -.674E+01 -.329E+01 0.185E+02   0.545E+01 0.259E+01 -.194E+02   0.129E+01 0.699E+00 0.986E+00   0.141E-03 -.250E-04 0.696E-03
   -.674E+01 0.329E+01 -.185E+02   0.545E+01 -.259E+01 0.194E+02   0.129E+01 -.699E+00 -.986E+00   0.141E-03 0.251E-04 -.695E-03
   0.674E+01 -.329E+01 -.185E+02   -.545E+01 0.259E+01 0.194E+02   -.129E+01 0.699E+00 -.986E+00   -.141E-03 -.253E-04 -.697E-03
   0.674E+01 0.329E+01 0.185E+02   -.545E+01 -.259E+01 -.194E+02   -.129E+01 -.699E+00 0.986E+00   -.141E-03 0.253E-04 0.696E-03
   -.200E+02 -.851E-05 -.612E-04   0.209E+02 -.933E-07 0.694E-05   -.916E+00 0.434E-18 -.173E-17   -.265E-03 -.171E-07 -.472E-06
   0.200E+02 -.104E-04 -.921E-04   -.209E+02 -.129E-05 -.157E-04   0.916E+00 0.173E-17 -.173E-17   0.265E-03 0.154E-07 0.496E-06
   0.200E+02 -.131E-04 -.948E-04   -.209E+02 -.307E-05 0.882E-05   0.916E+00 -.217E-17 0.173E-17   0.265E-03 0.154E-07 -.479E-06
   -.200E+02 -.162E-04 -.592E-04   0.209E+02 0.169E-05 -.138E-04   -.916E+00 -.173E-17 0.173E-17   -.265E-03 -.172E-07 0.488E-06
 -----------------------------------------------------------------------------------------------
   0.102E-02 -.755E-04 -.633E-03   -.675E-13 -.184E-13 -.284E-13   -.444E-15 -.113E-15 0.111E-15   0.121E-07 -.559E-09 -.176E-08
 
 
 POSITION                                       TOTAL-FORCE (eV/Angst)
 -----------------------------------------------------------------------------------
      1.21229      0.15515      2.73934         0.000091     -0.000406      0.000002
      1.21229      2.31565      4.28482         0.000091      0.000406     -0.000002
      1.19018      2.62595      0.77274        -0.000091     -0.000406     -0.000002
      1.19018      4.78646      6.25142        -0.000091      0.000406      0.000002
      3.59266      4.78646      4.28482        -0.000091      0.000406     -0.000002
      3.59266      2.62595      2.73934        -0.000091     -0.000406      0.000002
      3.61476      2.31565      6.25142         0.000091      0.000406      0.000002
      3.61476      0.15515      0.77274         0.000091     -0.000406     -0.000002
      0.51448      0.50597      4.59484         0.000112      0.000466      0.000342
      0.51448      1.96483      2.42932         0.000112     -0.000466     -0.000342
      1.88799      2.97677      5.94140        -0.000112      0.000466     -0.000342
      1.88799      4.43564      1.08276        -0.000112     -0.000466      0.000342
      4.29047      4.43564      2.42932        -0.000112     -0.000466     -0.000342
      4.29047      2.97677      4.59484        -0.000112      0.000466      0.000342
      2.91695      1.96483      1.08276         0.000112     -0.000466      0.000342
      2.91695      0.50597      5.94140         0.000112      0.000466     -0.000342
      0.24115      1.23540      0.00000        -0.000595      0.000000      0.000000
      2.16132      3.70620      3.51208         0.000595     -0.000000      0.000000
      4.56379      3.70620      0.00000         0.000595     -0.000000      0.000000
      2.64362      1.23540      3.51208        -0.000595     -0.000000      0.000000
 -----------------------------------------------------------------------------------
    total drift:                                0.001018     -0.000076     -0.000633


--------------------------------------------------------------------------------------------------------



  FREE ENERGIE OF THE ION-ELECTRON SYSTEM (eV)
  ---------------------------------------------------
  free  energy   TOTEN  =      -147.93324573 eV

  energy  without entropy=     -147.93343435  energy(sigma->0) =     -147.93330860
 


--------------------------------------------------------------------------------------------------------


    POTLOK:  cpu time    0.0841: real time    0.0841


--------------------------------------------------------------------------------------------------------


 stress matrix after NEB project (eV)
     -0.21044     -0.00000      0.00000
      0.00000     -0.21363      0.00000
      0.00000      0.00000     -0.20068
  FORCES: max atom, RMS     0.000595    0.000528
  FORCE total and by dimension    0.002361    0.000595
  Stress total and by dimension    0.360825    0.213629
 writing wavefunctions
     LOOP+:  cpu time   34.2046: real time   37.5057
    4ORBIT:  cpu time    0.0000: real time    0.0000

 total amount of memory used by VASP MPI-rank0    72497. kBytes
=======================================================================

   base      :      30000. kBytes
   nonlr-proj:       2131. kBytes
   fftplans  :       5804. kBytes
   grid      :      10312. kBytes
   one-center:         61. kBytes
   wavefun   :      24189. kBytes
 
  
  
 General timing and accounting informations for this job:
 ========================================================
  
                  Total CPU time used (sec):       35.646
                            User time (sec):       35.432
                          System time (sec):        0.214
                         Elapsed time (sec):       39.196
  
                   Maximum memory used (kb):      112480.
                   Average memory used (kb):           0.
  
                          Minor page faults:        51753
                          Major page faults:            0
                 Voluntary context switches:          525
