 vasp.6.1.0 28Jan20 (build Mar 09 2020 14:40:17) complex                        
  
 executed on             LinuxIFC date 2024.01.18  14:58:07
 running on    1 total cores
 distrk:  each k-point on    1 cores,    1 groups
 distr:  one band on NCORE=   1 cores,    1 groups


--------------------------------------------------------------------------------------------------------


 INCAR:
 POTCAR:    PAW_PBE Al 04Jan2001                  
 POTCAR:    PAW_PBE O 08Apr2002                   
 POTCAR:    PAW_PBE Al 04Jan2001                  
   SHA256 =  17880443556af62b473fe41b62a467bd001ad55d2cabe504a3f22e34d4e9db96 Al/POTCAR             
   COPYR  = (c) Copyright 04Jan2001 Georg Kresse                                                    
   COPYR  = This file is part of the software VASP. Any use, copying, and all other rights are regul
   COPYR  = If you do not have a valid VASP license, you may not use, copy or distribute this file. 
   VRHFIN =Al: s2p1                                                                                 
   LEXCH  = PE                                                                                      
   EATOM  =    53.5387 eV,    3.9350 Ry                                                             
                                                                                                    
   TITEL  = PAW_PBE Al 04Jan2001                                                                    
   LULTRA =        F    use ultrasoft PP ?                                                          
   IUNSCR =        1    unscreen: 0-lin 1-nonlin 2-no                                               
   RPACOR =    1.500    partial core radius                                                         
   POMASS =   26.981; ZVAL   =    3.000    mass and valenz                                          
   RCORE  =    1.900    outmost cutoff radius                                                       
   RWIGS  =    2.650; RWIGS  =    1.402    wigner-seitz radius (au A)                               
   ENMAX  =  240.300; ENMIN  =  180.225 eV                                                          
   ICORE  =        2    local potential                                                             
   LCOR   =        T    correct aug charges                                                         
   LPAW   =        T    paw PP                                                                      
   EAUG   =  291.052                                                                                
   DEXC   =    0.000                                                                                
   RMAX   =    1.939    core radius for proj-oper                                                   
   RAUG   =    1.300    factor for augmentation sphere                                              
   RDEP   =    1.966    radius for radial grids                                                     
   RDEPT  =    1.856    core radius for aug-charge                                                  
                                                                                                    
   Atomic configuration                                                                             
    6 entries                                                                                       
     n  l   j            E        occ.                                                              
     1  0  0.50     -1511.1048   2.0000                                                             
     2  0  0.50      -108.1629   2.0000                                                             
     2  1  1.50       -69.6402   6.0000                                                             
     3  0  0.50        -7.7528   2.0000                                                             
     3  1  1.50        -2.7121   1.0000                                                             
     3  2  2.50        -2.7212   0.0000                                                             
   Description                                                                                      
     l       E           TYP  RCUT    TYP  RCUT                                                     
     0     -7.7528455     23  1.900                                                                 
     0     -3.3096929     23  1.900                                                                 
     1     -2.7120682     23  1.900                                                                 
     1     13.6058260     23  1.900                                                                 
     2     -2.7211652      7  1.900                                                                 
  local pseudopotential read in
  partial core-charges read in
  partial kinetic energy density read in
  atomic valenz-charges read in
  non local Contribution for L=           0  read in
    real space projection operators read in
  non local Contribution for L=           0  read in
    real space projection operators read in
  non local Contribution for L=           1  read in
    real space projection operators read in
  non local Contribution for L=           1  read in
    real space projection operators read in
    PAW grid and wavefunctions read in
 
   number of l-projection  operators is LMAX  =           4
   number of lm-projection operators is LMMAX =           8
 
 POTCAR:    PAW_PBE O 08Apr2002                   
   SHA256 =  818f92134a0a090dccd8ba1447fa70422a3b330e708bb4f08108d8ae51209ddf O/POTCAR              
   COPYR  = (c) Copyright 08Apr2002 Georg Kresse                                                    
   COPYR  = This file is part of the software VASP. Any use, copying, and all other rights are regul
   COPYR  = If you do not have a valid VASP license, you may not use, copy or distribute this file. 
   VRHFIN =O: s2p4                                                                                  
   LEXCH  = PE                                                                                      
   EATOM  =   432.3788 eV,   31.7789 Ry                                                             
                                                                                                    
   TITEL  = PAW_PBE O 08Apr2002                                                                     
   LULTRA =        F    use ultrasoft PP ?                                                          
   IUNSCR =        1    unscreen: 0-lin 1-nonlin 2-no                                               
   RPACOR =    1.200    partial core radius                                                         
   POMASS =   16.000; ZVAL   =    6.000    mass and valenz                                          
   RCORE  =    1.520    outmost cutoff radius                                                       
   RWIGS  =    1.550; RWIGS  =    0.820    wigner-seitz radius (au A)                               
   ENMAX  =  400.000; ENMIN  =  300.000 eV                                                          
   ICORE  =        2    local potential                                                             
   LCOR   =        T    correct aug charges                                                         
   LPAW   =        T    paw PP                                                                      
   EAUG   =  605.392                                                                                
   DEXC   =    0.000                                                                                
   RMAX   =    1.553    core radius for proj-oper                                                   
   RAUG   =    1.300    factor for augmentation sphere                                              
   RDEP   =    1.550    radius for radial grids                                                     
   RDEPT  =    1.329    core radius for aug-charge                                                  
                                                                                                    
   Atomic configuration                                                                             
    4 entries                                                                                       
     n  l   j            E        occ.                                                              
     1  0  0.50      -514.6923   2.0000                                                             
     2  0  0.50       -23.9615   2.0000                                                             
     2  1  0.50        -9.0305   4.0000                                                             
     3  2  1.50        -9.5241   0.0000                                                             
   Description                                                                                      
     l       E           TYP  RCUT    TYP  RCUT                                                     
     0    -23.9615318     23  1.200                                                                 
     0     -9.5240782     23  1.200                                                                 
     1     -9.0304911     23  1.520                                                                 
     1      8.1634956     23  1.520                                                                 
     2     -9.5240782      7  1.500                                                                 
  local pseudopotential read in
  partial core-charges read in
  partial kinetic energy density read in
  kinetic energy density of atom read in
  atomic valenz-charges read in
  non local Contribution for L=           0  read in
    real space projection operators read in
  non local Contribution for L=           0  read in
    real space projection operators read in
  non local Contribution for L=           1  read in
    real space projection operators read in
  non local Contribution for L=           1  read in
    real space projection operators read in
    PAW grid and wavefunctions read in
 
   number of l-projection  operators is LMAX  =           4
   number of lm-projection operators is LMMAX =           8
 
 Optimization of the real space projectors (new method)

 maximal supplied QI-value         = 19.84
 optimisation between [QCUT,QGAM] = [ 10.12, 20.44] = [ 28.68,116.96] Ry 
 Optimized for a Real-space Cutoff    1.23 Angstroem

   l    n(q)    QCUT    max X(q) W(low)/X(q) W(high)/X(q)  e(spline) 
   0      7    10.119   176.870    0.49E-04    0.18E-03    0.39E-07
   0      7    10.119   105.762    0.46E-04    0.18E-03    0.38E-07
   1      7    10.119    55.370    0.30E-03    0.37E-03    0.12E-06
   1      7    10.119    20.208    0.27E-03    0.35E-03    0.11E-06
 Optimization of the real space projectors (new method)

 maximal supplied QI-value         = 24.76
 optimisation between [QCUT,QGAM] = [ 10.15, 20.30] = [ 28.85,115.39] Ry 
 Optimized for a Real-space Cutoff    1.38 Angstroem

   l    n(q)    QCUT    max X(q) W(low)/X(q) W(high)/X(q)  e(spline) 
   0      8    10.150    20.381    0.22E-03    0.32E-03    0.29E-06
   0      8    10.150    15.268    0.23E-03    0.35E-03    0.30E-06
   1      8    10.150     5.964    0.46E-03    0.53E-03    0.21E-06
   1      8    10.150     5.382    0.38E-03    0.45E-03    0.19E-06
  PAW_PBE Al 04Jan2001                  :
 energy of atom  1       EATOM=  -53.5387
 kinetic energy error for atom=    0.0005 (will be added to EATOM!!)
  PAW_PBE O 08Apr2002                   :
 energy of atom  2       EATOM= -432.3788
 kinetic energy error for atom=    0.1156 (will be added to EATOM!!)
 
 
 POSCAR:    Al  O
  positions in direct lattice
  No initial velocities read in
 exchange correlation table for  LEXCH =        8
   RHO(1)=    0.500       N(1)  =     2000
   RHO(2)=  100.500       N(2)  =     4000

 VTST: version 3.2, (02/03/18)

 CHAIN: initializing optimizer
 
 OPT: Using VASP Dynamics algorithm
 CHAIN: Read ICHAIN            0
 
 POSCAR:    Al  O
  positions in direct lattice
  No initial velocities read in
 


--------------------------------------------------------------------------------------------------------


 ion  position               nearest neighbor table
   1  0.252  0.031  0.390-  18 1.85  13 1.87  12 1.91  20 1.95  10 1.96   9 2.01   2 2.65   5 2.85
                             5 2.89   8 3.10   8 3.10   3 3.15   3 3.15   2 3.18
   2  0.252  0.469  0.610-  18 1.85  14 1.87  11 1.91  20 1.95   9 1.96  10 2.01   1 2.65   6 2.85
                             6 2.89   7 3.10   7 3.10   4 3.15   4 3.15   1 3.18
   3  0.248  0.531  0.110-  17 1.85  15 1.87  10 1.91  19 1.95  12 1.96  11 2.01   4 2.65   7 2.85
                             7 2.89   6 3.10   6 3.10   1 3.15   1 3.15   4 3.18
   4  0.248  0.969  0.890-  17 1.85  16 1.87   9 1.91  19 1.95  11 1.96  12 2.01   3 2.65   8 2.85
                             8 2.89   5 3.10   5 3.10   2 3.15   2 3.15   3 3.18
   5  0.748  0.969  0.610-  20 1.85   9 1.87  16 1.91  18 1.95  14 1.96  13 2.01   6 2.65   1 2.85
                             1 2.89   4 3.10   4 3.10   7 3.15   7 3.15   6 3.18
   6  0.748  0.531  0.390-  20 1.85  10 1.87  15 1.91  18 1.95  13 1.96  14 2.01   5 2.65   2 2.85
                             2 2.89   3 3.10   3 3.10   8 3.15   8 3.15   5 3.18
   7  0.752  0.469  0.890-  19 1.85  11 1.87  14 1.91  17 1.95  16 1.96  15 2.01   8 2.65   3 2.85
                             3 2.89   2 3.10   2 3.10   5 3.15   5 3.15   8 3.18
   8  0.752  0.031  0.110-  19 1.85  12 1.87  13 1.91  17 1.95  15 1.96  16 2.01   7 2.65   4 2.85
                             4 2.89   1 3.10   1 3.10   6 3.15   6 3.15   7 3.18
   9  0.107  0.102  0.654-   5 1.87   4 1.91   2 1.96   1 2.01
  10  0.107  0.398  0.346-   6 1.87   3 1.91   1 1.96   2 2.01
  11  0.393  0.602  0.846-   7 1.87   2 1.91   4 1.96   3 2.01
  12  0.393  0.898  0.154-   8 1.87   1 1.91   3 1.96   4 2.01
  13  0.893  0.898  0.346-   1 1.87   8 1.91   6 1.96   5 2.01
  14  0.893  0.602  0.654-   2 1.87   7 1.91   5 1.96   6 2.01
  15  0.607  0.398  0.154-   3 1.87   6 1.91   8 1.96   7 2.01
  16  0.607  0.102  0.846-   4 1.87   5 1.91   7 1.96   8 2.01
  17  0.050  0.250  0.000-   3 1.85   4 1.85   8 1.95   7 1.95
  18  0.450  0.750  0.500-   1 1.85   2 1.85   6 1.95   5 1.95
  19  0.950  0.750  0.000-   8 1.85   7 1.85   3 1.95   4 1.95
  20  0.550  0.250  0.500-   6 1.85   5 1.85   2 1.95   1 1.95
 
  LATTYP: Found a simple orthorhombic cell.
 ALAT       =     4.8001396149
 B/A-ratio  =     1.0284415337
 C/A-ratio  =     1.4618613431
  
  Lattice vectors:
  
 A1 = (   4.8001396149,   0.0000000000,   0.0000000000)
 A2 = (   0.0000000000,   4.9366629473,   0.0000000000)
 A3 = (   0.0000000000,   0.0000000000,   7.0171385444)


Analysis of symmetry for initial positions (statically):
=====================================================================
 Subroutine PRICEL returns:
 Original cell was already a primitive cell.
 

 Routine SETGRP: Setting up the symmetry group for a 
 simple orthorhombic supercell.


 Subroutine GETGRP returns: Found  8 space group operations
 (whereof  2 operations were pure point group operations)
 out of a pool of  8 trial point group operations.


The static configuration has the point symmetry S_2 .
 The point group associated with its full space group is D_2h.


Analysis of symmetry for dynamics (positions and initial velocities):
=====================================================================
 Subroutine PRICEL returns:
 Original cell was already a primitive cell.
 

 Routine SETGRP: Setting up the symmetry group for a 
 simple orthorhombic supercell.


 Subroutine GETGRP returns: Found  8 space group operations
 (whereof  2 operations were pure point group operations)
 out of a pool of  8 trial point group operations.


The dynamic configuration has the point symmetry S_2 .
 The point group associated with its full space group is D_2h.


Analysis of constrained symmetry for selective dynamics:
=====================================================================
 Subroutine PRICEL returns:
 Original cell was already a primitive cell.
 

 Routine SETGRP: Setting up the symmetry group for a 
 simple orthorhombic supercell.


 Subroutine GETGRP returns: Found  8 space group operations
 (whereof  2 operations were pure point group operations)
 out of a pool of  8 trial point group operations.


The constrained configuration has the point symmetry S_2 .
 The point group associated with its full space group is D_2h.


 Subroutine INISYM returns: Found  8 space group operations
 (whereof  2 operations are pure point group operations),
 and found     1 'primitive' translations


----------------------------------------------------------------------------------------

                                     Primitive cell                                     

  volume of cell :     166.2828

  direct lattice vectors                    reciprocal lattice vectors
     4.800139615  0.000000000  0.000000000     0.208327274  0.000000000  0.000000000
     0.000000000  4.936662947  0.000000000     0.000000000  0.202565987  0.000000000
     0.000000000  0.000000000  7.017138544     0.000000000  0.000000000  0.142508231

  length of vectors
     4.800139615  4.936662947  7.017138544     0.208327274  0.202565987  0.142508231

  position of ions in fractional coordinates (direct lattice)
     0.252300235  0.031396366  0.389988577
     0.252300235  0.468603632  0.610011423
     0.247699765  0.531396368  0.110011408
     0.247699765  0.968603632  0.889988577
     0.747699735  0.968603632  0.610011423
     0.747699735  0.531396368  0.389988577
     0.752300265  0.468603632  0.889988577
     0.752300265  0.031396366  0.110011408
     0.107072754  0.102389751  0.654147657
     0.107072754  0.397610242  0.345852343
     0.392927238  0.602389729  0.845852343
     0.392927238  0.897610271  0.154147642
     0.892927268  0.897610271  0.345852343
     0.892927268  0.602389729  0.654147657
     0.607072732  0.397610242  0.154147642
     0.607072732  0.102389751  0.845852343
     0.050188369  0.250000000  0.000000000
     0.449811635  0.750000000  0.500000000
     0.949811605  0.750000000  0.000000000
     0.550188395  0.250000000  0.500000000

  ion indices of the primitive-cell ions
   primitive index   ion index
                 1           1
                 2           2
                 3           3
                 4           4
                 5           5
                 6           6
                 7           7
                 8           8
                 9           9
                10          10
                11          11
                12          12
                13          13
                14          14
                15          15
                16          16
                17          17
                18          18
                19          19
                20          20

----------------------------------------------------------------------------------------

 
 
 KPOINTS: k-points                                

Automatic generation of k-mesh.
Space group operators:
 irot       det(A)        alpha          n_x          n_y          n_z        tau_x        tau_y        tau_z
    1     1.000000     0.000000     1.000000     0.000000     0.000000     0.000000     0.000000     0.000000
    2    -1.000000     0.000000     1.000000     0.000000     0.000000     0.000000     0.000000     0.000000
    3     1.000000   179.999999     0.000000     0.000000     1.000000    -0.500000     0.000000    -0.500000
    4    -1.000000   179.999999     0.000000     0.000000     1.000000     0.500000     0.000000     0.500000
    5     1.000000   180.000000     0.000000     1.000000     0.000000    -0.500000    -0.500000     0.500000
    6    -1.000000   180.000000     0.000000     1.000000     0.000000     0.500000     0.500000    -0.500000
    7     1.000000   180.000000     1.000000     0.000000     0.000000     0.000000     0.500000     0.000000
    8    -1.000000   180.000000     1.000000     0.000000     0.000000     0.000000    -0.500000     0.000000
 
 Subroutine IBZKPT returns following result:
 ===========================================
 
 Found      8 irreducible k-points:
 
 Following reciprocal coordinates:
            Coordinates               Weight
  0.125000  0.125000  0.125000      8.000000
  0.375000  0.125000  0.125000      8.000000
  0.125000  0.375000  0.125000      8.000000
  0.375000  0.375000  0.125000      8.000000
  0.125000  0.125000  0.375000      8.000000
  0.375000  0.125000  0.375000      8.000000
  0.125000  0.375000  0.375000      8.000000
  0.375000  0.375000  0.375000      8.000000
 
 Following cartesian coordinates:
            Coordinates               Weight
  0.026041  0.025321  0.017814      8.000000
  0.078123  0.025321  0.017814      8.000000
  0.026041  0.075962  0.017814      8.000000
  0.078123  0.075962  0.017814      8.000000
  0.026041  0.025321  0.053441      8.000000
  0.078123  0.025321  0.053441      8.000000
  0.026041  0.075962  0.053441      8.000000
  0.078123  0.075962  0.053441      8.000000
 


--------------------------------------------------------------------------------------------------------




 Dimension of arrays:
   k-points           NKPTS =      8   k-points in BZ     NKDIM =      8   number of bands    NBANDS=     59
   number of dos      NEDOS =    301   number of ions     NIONS =     20
   non local maximal  LDIM  =      4   non local SUM 2l+1 LMDIM =      8
   total plane-waves  NPLWV =  20736
   max r-space proj   IRMAX =   1424   max aug-charges    IRDMAX=   5052
   dimension x,y,z NGX =    24 NGY =   24 NGZ =   36
   dimension x,y,z NGXF=    48 NGYF=   48 NGZF=   72
   support grid    NGXF=    48 NGYF=   48 NGZF=   72
   ions per type =               8  12
   NGX,Y,Z   is equivalent  to a cutoff of   8.31,  8.08,  8.53 a.u.
   NGXF,Y,Z  is equivalent  to a cutoff of  16.62, 16.16, 17.06 a.u.

 SYSTEM =  Alumina_orthorombic_cell_under_strain   
 POSCAR =     Al  O                                

 Startparameter for this run:
   NWRITE =      2    write-flag & timer
   PREC   = normal    normal or accurate (medium, high low for compatibility)
   ISTART =      0    job   : 0-new  1-cont  2-samecut
   ICHARG =      2    charge: 1-file 2-atom 10-const
   ISPIN  =      1    spin polarized calculation?
   LNONCOLLINEAR =      F non collinear calculations
   LSORBIT =      F    spin-orbit coupling
   INIWAV =      1    electr: 0-lowe 1-rand  2-diag
   LASPH  =      F    aspherical Exc in radial PAW
   METAGGA=      F    non-selfconsistent MetaGGA calc.

 Electronic Relaxation 1
   ENCUT  =  400.0 eV  29.40 Ry    5.42 a.u.   7.83  8.05 11.44*2*pi/ulx,y,z
   ENINI  =  400.0     initial cutoff
   ENAUG  =  605.4 eV  augmentation charge cutoff
   NELM   =    100;   NELMIN=  2; NELMDL= -5     # of ELM steps 
   EDIFF  = 0.1E-05   stopping-criterion for ELM
   LREAL  =      T    real-space projection
   NLSPLINE    = F    spline interpolate recip. space projectors
   LCOMPAT=      F    compatible to vasp.4.4
   GGA_COMPAT  = T    GGA compatible to vasp.4.4-vasp.4.6
   LMAXPAW     = -100 max onsite density
   LMAXMIX     =    2 max onsite mixed and CHGCAR
   VOSKOWN=      0    Vosko Wilk Nusair interpolation
   ROPT   =   -0.00050  -0.00050
 Ionic relaxation
   EDIFFG = -.1E-02   stopping-criterion for IOM
   NSW    =      0    number of steps for IOM
   NBLOCK =      1;   KBLOCK =      1    inner block; outer block 
   IBRION =     -1    ionic relax: 0-MD 1-quasi-New 2-CG
   NFREE  =      0    steps in history (QN), initial steepest desc. (CG)
   ISIF   =      2    stress and relaxation
   IWAVPR =     10    prediction:  0-non 1-charg 2-wave 3-comb
   ISYM   =      2    0-nonsym 1-usesym 2-fastsym
   LCORR  =      T    Harris-Foulkes like correction to forces

   POTIM  = 0.5000    time-step for ionic-motion
   TEIN   =    0.0    initial temperature
   TEBEG  =    0.0;   TEEND  =   0.0 temperature during run
   SMASS  =  -3.00    Nose mass-parameter (am)
   estimated Nose-frequenzy (Omega)   =  0.10E-29 period in steps = 0.13E+47 mass=  -0.527E-27a.u.
   SCALEE = 1.0000    scale energy and forces
   NPACO  =    256;   APACO  = 16.0  distance and # of slots for P.C.
   PSTRESS=    0.0 pullay stress

  Mass of Ions in am
   POMASS =  26.98 16.00
  Ionic Valenz
   ZVAL   =   3.00  6.00
  Atomic Wigner-Seitz radii
   RWIGS  =  -1.00 -1.00
  virtual crystal weights 
   VCA    =   1.00  1.00
   NELECT =      96.0000    total number of electrons
   NUPDOWN=      -1.0000    fix difference up-down

 DOS related values:
   EMIN   =  10.00;   EMAX   =-10.00  energy-range for DOS
   EFERMI =   0.00
   ISMEAR =     1;   SIGMA  =   0.03  broadening in eV -4-tet -1-fermi 0-gaus

 Electronic relaxation 2 (details)
   IALGO  =     38    algorithm
   LDIAG  =      T    sub-space diagonalisation (order eigenvalues)
   LSUBROT=      F    optimize rotation matrix (better conditioning)
   TURBO    =      0    0=normal 1=particle mesh
   IRESTART =      0    0=no restart 2=restart with 2 vectors
   NREBOOT  =      0    no. of reboots
   NMIN     =      0    reboot dimension
   EREF     =   0.00    reference energy to select bands
   IMIX   =      4    mixing-type and parameters
     AMIX     =   0.40;   BMIX     =  1.00
     AMIX_MAG =   1.60;   BMIX_MAG =  1.00
     AMIN     =   0.10
     WC   =   100.;   INIMIX=   1;  MIXPRE=   1;  MAXMIX= -45

 Intra band minimization:
   WEIMIN = 0.0000     energy-eigenvalue tresh-hold
   EBREAK =  0.42E-08  absolut break condition
   DEPER  =   0.30     relativ break condition  

   TIME   =   0.40     timestep for ELM

  volume/ion in A,a.u.               =       8.31        56.11
  Fermi-wavevector in a.u.,A,eV,Ry     =   1.363168  2.576014 25.282720  1.858228
  Thomas-Fermi vector in A             =   2.489595
 
 Write flags
   LWAVE        =      T    write WAVECAR
   LDOWNSAMPLE  =      F    k-point downsampling of WAVECAR
   LCHARG       =      T    write CHGCAR
   LVTOT        =      F    write LOCPOT, total local potential
   LVHAR        =      F    write LOCPOT, Hartree potential only
   LELF         =      F    write electronic localiz. function (ELF)
   LORBIT       =      0    0 simple, 1 ext, 2 COOP (PROOUT), +10 PAW based schemes


 Dipole corrections
   LMONO  =      F    monopole corrections only (constant potential shift)
   LDIPOL =      F    correct potential (dipole corrections)
   IDIPOL =      0    1-x, 2-y, 3-z, 4-all directions 
   EPSILON=  1.0000000 bulk dielectric constant

 Exchange correlation treatment:
   GGA     =    --    GGA type
   LEXCH   =     8    internal setting for exchange type
   VOSKOWN=      0    Vosko Wilk Nusair interpolation
   LHFCALC =     F    Hartree Fock is set to
   LHFONE  =     F    Hartree Fock one center treatment
   AEXX    =    0.0000 exact exchange contribution

 Linear response parameters
   LEPSILON=     F    determine dielectric tensor
   LRPA    =     F    only Hartree local field effects (RPA)
   LNABLA  =     F    use nabla operator in PAW spheres
   LVEL    =     F    velocity operator in full k-point grid
   LINTERFAST=   F  fast interpolation
   KINTER  =     0    interpolate to denser k-point grid
   CSHIFT  =0.1000    complex shift for real part using Kramers Kronig
   OMEGAMAX=  -1.0    maximum frequency
   DEG_THRESHOLD= 0.2000000E-02 threshold for treating states as degnerate
   RTIME   =   -0.100 relaxation time in fs
  (WPLASMAI=    0.000 imaginary part of plasma frequency in eV, 0.658/RTIME)
   DFIELD  = 0.0000000 0.0000000 0.0000000 field for delta impulse in time
 
 Orbital magnetization related:
   ORBITALMAG=     F  switch on orbital magnetization
   LCHIMAG   =     F  perturbation theory with respect to B field
   DQ        =  0.001000  dq finite difference perturbation B field
   LLRAUG    =     F  two centre corrections for induced B field



--------------------------------------------------------------------------------------------------------


 Static calculation
 charge density and potential will be updated during run
 non-spin polarized calculation
 Variant of blocked Davidson
 Davidson routine will perform the subspace rotation
 perform sub-space diagonalisation
    after iterative eigenvector-optimisation
 modified Broyden-mixing scheme, WC =      100.0
 initial mixing is a Kerker type mixing with AMIX =  0.4000 and BMIX =      1.0000
 Hartree-type preconditioning will be used
 using additional bands           11
 real space projection scheme for non local part
 use partial core corrections
 calculate Harris-corrections to forces 
   (improved forces if not selfconsistent)
 use gradient corrections 
 use of overlap-Matrix (Vanderbilt PP)
 Methfessel and Paxton  Order N= 1 SIGMA  =   0.03


--------------------------------------------------------------------------------------------------------


  energy-cutoff  :      400.00
  volume of cell :      166.28
      direct lattice vectors                 reciprocal lattice vectors
     4.800139615  0.000000000  0.000000000     0.208327274  0.000000000  0.000000000
     0.000000000  4.936662947  0.000000000     0.000000000  0.202565987  0.000000000
     0.000000000  0.000000000  7.017138544     0.000000000  0.000000000  0.142508231

  length of vectors
     4.800139615  4.936662947  7.017138544     0.208327274  0.202565987  0.142508231


 
 k-points in units of 2pi/SCALE and weight: k-points                                
   0.02604091  0.02532075  0.01781353       0.125
   0.07812273  0.02532075  0.01781353       0.125
   0.02604091  0.07596224  0.01781353       0.125
   0.07812273  0.07596224  0.01781353       0.125
   0.02604091  0.02532075  0.05344059       0.125
   0.07812273  0.02532075  0.05344059       0.125
   0.02604091  0.07596224  0.05344059       0.125
   0.07812273  0.07596224  0.05344059       0.125
 
 k-points in reciprocal lattice and weights: k-points                                
   0.12500000  0.12500000  0.12500000       0.125
   0.37500000  0.12500000  0.12500000       0.125
   0.12500000  0.37500000  0.12500000       0.125
   0.37500000  0.37500000  0.12500000       0.125
   0.12500000  0.12500000  0.37500000       0.125
   0.37500000  0.12500000  0.37500000       0.125
   0.12500000  0.37500000  0.37500000       0.125
   0.37500000  0.37500000  0.37500000       0.125
 
 position of ions in fractional coordinates (direct lattice) 
   0.25230024  0.03139637  0.38998858
   0.25230024  0.46860363  0.61001142
   0.24769976  0.53139637  0.11001141
   0.24769976  0.96860363  0.88998858
   0.74769973  0.96860363  0.61001142
   0.74769973  0.53139637  0.38998858
   0.75230027  0.46860363  0.88998858
   0.75230027  0.03139637  0.11001141
   0.10707275  0.10238975  0.65414766
   0.10707275  0.39761024  0.34585234
   0.39292724  0.60238973  0.84585234
   0.39292724  0.89761027  0.15414764
   0.89292727  0.89761027  0.34585234
   0.89292727  0.60238973  0.65414766
   0.60707273  0.39761024  0.15414764
   0.60707273  0.10238975  0.84585234
   0.05018837  0.25000000  0.00000000
   0.44981163  0.75000000  0.50000000
   0.94981160  0.75000000  0.00000000
   0.55018840  0.25000000  0.50000000
 
 position of ions in cartesian coordinates  (Angst):
   1.21107635  0.15499328  2.73660388
   1.21107635  2.31333819  4.28053467
   1.18899345  2.62332476  0.77196529
   1.18899345  4.78166966  6.24517315
   3.58906312  4.78166966  4.28053467
   3.58906312  2.62332476  2.73660388
   3.61114630  2.31333819  6.24517315
   3.61114630  0.15499328  0.77196529
   0.51396417  0.50546369  4.59024473
   0.51396417  1.96286775  2.42689381
   1.88610560  2.97379505  5.93546308
   1.88610560  4.43119937  1.08167536
   4.28617555  4.43119937  2.42689381
   4.28617555  2.97379505  4.59024473
   2.91403387  1.96286775  1.08167536
   2.91403387  0.50546369  5.93546308
   0.24091118  1.23416574  0.00000000
   2.15915865  3.70249721  3.50856927
   4.55922831  3.70249721  0.00000000
   2.64098111  1.23416574  3.50856927
 


--------------------------------------------------------------------------------------------------------


 k-point   1 :   0.1250 0.1250 0.1250  plane waves:    3006
 k-point   2 :   0.3750 0.1250 0.1250  plane waves:    3015
 k-point   3 :   0.1250 0.3750 0.1250  plane waves:    3027
 k-point   4 :   0.3750 0.3750 0.1250  plane waves:    3036
 k-point   5 :   0.1250 0.1250 0.3750  plane waves:    3015
 k-point   6 :   0.3750 0.1250 0.3750  plane waves:    3013
 k-point   7 :   0.1250 0.3750 0.3750  plane waves:    3016
 k-point   8 :   0.3750 0.3750 0.3750  plane waves:    3022

 maximum and minimum number of plane-waves per node :      3036     3006

 maximum number of plane-waves:      3036
 maximum index in each direction: 
   IXMAX=    7   IYMAX=    7   IZMAX=   11
   IXMIN=   -8   IYMIN=   -8   IZMIN=  -11


 serial   3D FFT for wavefunctions
 parallel 3D FFT for charge:
    minimum data exchange during FFTs selected (reduces bandwidth)


 total amount of memory used by VASP MPI-rank0    72446. kBytes
=======================================================================

   base      :      30000. kBytes
   nonlr-proj:       2133. kBytes
   fftplans  :       5804. kBytes
   grid      :      10312. kBytes
   one-center:         61. kBytes
   wavefun   :      24136. kBytes
 
     INWAV:  cpu time    0.0001: real time    0.0004
 Broyden mixing: mesh for mixing (old mesh)
   NGX = 15   NGY = 17   NGZ = 23
  (NGX  = 48   NGY  = 48   NGZ  = 72)
  gives a total of   5865 points

 initial charge density was supplied:
 charge density of overlapping atoms calculated
 number of electron      96.0000000 magnetization 
 keeping initial charge density in first step


--------------------------------------------------------------------------------------------------------


 Maximum index for non-local projection operator         1346
 Maximum index for augmentation-charges         4717 (set IRDMAX)


--------------------------------------------------------------------------------------------------------


 First call to EWALD:  gamma=   0.322
 Maximum number of real-space cells 3x 3x 2
 Maximum number of reciprocal cells 2x 3x 3

    FEWALD:  cpu time    0.0029: real time    0.0028


--------------------------------------- Iteration      1(   1)  ---------------------------------------


    POTLOK:  cpu time    0.0725: real time    0.0747
    SETDIJ:  cpu time    0.0199: real time    0.0199
     EDDAV:  cpu time    1.7928: real time    1.7930
       DOS:  cpu time    0.0012: real time    0.0012
    --------------------------------------------
      LOOP:  cpu time    1.8864: real time    1.8888

 eigenvalue-minimisations  :   944
 total energy-change (2. order) : 0.4473248E+03  (-0.4439380E+04)
 number of electron      96.0000000 magnetization 
 augmentation part       96.0000000 magnetization 

 Free energy of the ion-electron system (eV)
  ---------------------------------------------------
  alpha Z        PSCENC =       155.27400407
  Ewald energy   TEWEN  =     -4875.49153190
  -Hartree energ DENC   =     -1230.15977814
  -exchange      EXHF   =         0.00000000
  -V(xc)+E(xc)   XCENC  =       133.65531082
  PAW double counting   =      4688.19497969    -4454.14273673
  entropy T*S    EENTRO =         0.00019299
  eigenvalues    EBANDS =       414.53073479
  atomic energy  EATOM  =      5615.46358700
  Solvation  Ediel_sol  =         0.00000000
  ---------------------------------------------------
  free energy    TOTEN  =       447.32476259 eV

  energy without entropy =      447.32456960  energy(sigma->0) =      447.32469826


--------------------------------------------------------------------------------------------------------




--------------------------------------- Iteration      1(   2)  ---------------------------------------


     EDDAV:  cpu time    2.0719: real time    2.0727
       DOS:  cpu time    0.0010: real time    0.0010
    --------------------------------------------
      LOOP:  cpu time    2.0729: real time    2.0737

 eigenvalue-minimisations  :  1144
 total energy-change (2. order) :-0.5842319E+03  (-0.5709115E+03)
 number of electron      96.0000000 magnetization 
 augmentation part       96.0000000 magnetization 

 Free energy of the ion-electron system (eV)
  ---------------------------------------------------
  alpha Z        PSCENC =       155.27400407
  Ewald energy   TEWEN  =     -4875.49153190
  -Hartree energ DENC   =     -1230.15977814
  -exchange      EXHF   =         0.00000000
  -V(xc)+E(xc)   XCENC  =       133.65531082
  PAW double counting   =      4688.19497969    -4454.14273673
  entropy T*S    EENTRO =         0.00018843
  eigenvalues    EBANDS =      -169.70120937
  atomic energy  EATOM  =      5615.46358700
  Solvation  Ediel_sol  =         0.00000000
  ---------------------------------------------------
  free energy    TOTEN  =      -136.90718612 eV

  energy without entropy =     -136.90737455  energy(sigma->0) =     -136.90724893


--------------------------------------------------------------------------------------------------------




--------------------------------------- Iteration      1(   3)  ---------------------------------------


     EDDAV:  cpu time    2.0469: real time    2.0476
       DOS:  cpu time    0.0011: real time    0.0011
    --------------------------------------------
      LOOP:  cpu time    2.0481: real time    2.0488

 eigenvalue-minimisations  :  1120
 total energy-change (2. order) :-0.2680524E+02  (-0.2671012E+02)
 number of electron      96.0000000 magnetization 
 augmentation part       96.0000000 magnetization 

 Free energy of the ion-electron system (eV)
  ---------------------------------------------------
  alpha Z        PSCENC =       155.27400407
  Ewald energy   TEWEN  =     -4875.49153190
  -Hartree energ DENC   =     -1230.15977814
  -exchange      EXHF   =         0.00000000
  -V(xc)+E(xc)   XCENC  =       133.65531082
  PAW double counting   =      4688.19497969    -4454.14273673
  entropy T*S    EENTRO =         0.00026608
  eigenvalues    EBANDS =      -196.50652731
  atomic energy  EATOM  =      5615.46358700
  Solvation  Ediel_sol  =         0.00000000
  ---------------------------------------------------
  free energy    TOTEN  =      -163.71242642 eV

  energy without entropy =     -163.71269250  energy(sigma->0) =     -163.71251511


--------------------------------------------------------------------------------------------------------




--------------------------------------- Iteration      1(   4)  ---------------------------------------


     EDDAV:  cpu time    2.0363: real time    2.0370
       DOS:  cpu time    0.0010: real time    0.0010
    --------------------------------------------
      LOOP:  cpu time    2.0373: real time    2.0380

 eigenvalue-minimisations  :  1120
 total energy-change (2. order) :-0.2559249E+00  (-0.2553346E+00)
 number of electron      96.0000000 magnetization 
 augmentation part       96.0000000 magnetization 

 Free energy of the ion-electron system (eV)
  ---------------------------------------------------
  alpha Z        PSCENC =       155.27400407
  Ewald energy   TEWEN  =     -4875.49153190
  -Hartree energ DENC   =     -1230.15977814
  -exchange      EXHF   =         0.00000000
  -V(xc)+E(xc)   XCENC  =       133.65531082
  PAW double counting   =      4688.19497969    -4454.14273673
  entropy T*S    EENTRO =         0.00025544
  eigenvalues    EBANDS =      -196.76244161
  atomic energy  EATOM  =      5615.46358700
  Solvation  Ediel_sol  =         0.00000000
  ---------------------------------------------------
  free energy    TOTEN  =      -163.96835136 eV

  energy without entropy =     -163.96860680  energy(sigma->0) =     -163.96843651


--------------------------------------------------------------------------------------------------------




--------------------------------------- Iteration      1(   5)  ---------------------------------------


     EDDAV:  cpu time    2.0108: real time    2.0115
       DOS:  cpu time    0.0010: real time    0.0010
    CHARGE:  cpu time    0.1181: real time    0.1181
    MIXING:  cpu time    0.0025: real time    0.0025
    --------------------------------------------
      LOOP:  cpu time    2.1325: real time    2.1332

 eigenvalue-minimisations  :  1112
 total energy-change (2. order) :-0.4113203E-02  (-0.4109261E-02)
 number of electron      96.0000390 magnetization 
 augmentation part        9.3288655 magnetization 

 Broyden mixing:
  rms(total) = 0.24465E+01    rms(broyden)= 0.24456E+01
  rms(prec ) = 0.38325E+01
  weight for this iteration     100.00

 Free energy of the ion-electron system (eV)
  ---------------------------------------------------
  alpha Z        PSCENC =       155.27400407
  Ewald energy   TEWEN  =     -4875.49153190
  -Hartree energ DENC   =     -1230.15977814
  -exchange      EXHF   =         0.00000000
  -V(xc)+E(xc)   XCENC  =       133.65531082
  PAW double counting   =      4688.19497969    -4454.14273673
  entropy T*S    EENTRO =         0.00025531
  eigenvalues    EBANDS =      -196.76655469
  atomic energy  EATOM  =      5615.46358700
  Solvation  Ediel_sol  =         0.00000000
  ---------------------------------------------------
  free energy    TOTEN  =      -163.97246457 eV

  energy without entropy =     -163.97271988  energy(sigma->0) =     -163.97254967


--------------------------------------------------------------------------------------------------------




--------------------------------------- Iteration      1(   6)  ---------------------------------------


    POTLOK:  cpu time    0.0673: real time    0.0676
    SETDIJ:  cpu time    0.0200: real time    0.0200
     EDDAV:  cpu time    1.9319: real time    1.9321
       DOS:  cpu time    0.0011: real time    0.0011
    CHARGE:  cpu time    0.1184: real time    0.1184
    MIXING:  cpu time    0.0029: real time    0.0029
    --------------------------------------------
      LOOP:  cpu time    2.1417: real time    2.1422

 eigenvalue-minimisations  :  1050
 total energy-change (2. order) : 0.1606310E+02  (-0.6776899E+01)
 number of electron      96.0000334 magnetization 
 augmentation part        7.9070383 magnetization 

 Broyden mixing:
  rms(total) = 0.85275E+00    rms(broyden)= 0.85152E+00
  rms(prec ) = 0.10369E+01
  weight for this iteration     100.00

 eigenvalues of (default mixing * dielectric matrix)
  average eigenvalue GAMMA=   0.9653
  0.9653

 Free energy of the ion-electron system (eV)
  ---------------------------------------------------
  alpha Z        PSCENC =       155.27400407
  Ewald energy   TEWEN  =     -4875.49153190
  -Hartree energ DENC   =     -1415.79817182
  -exchange      EXHF   =         0.00000000
  -V(xc)+E(xc)   XCENC  =       146.77405266
  PAW double counting   =      6056.45748547    -5825.98729359
  entropy T*S    EENTRO =         0.00018849
  eigenvalues    EBANDS =        -4.60168511
  atomic energy  EATOM  =      5615.46358700
  Solvation  Ediel_sol  =         0.00000000
  ---------------------------------------------------
  free energy    TOTEN  =      -147.90936473 eV

  energy without entropy =     -147.90955322  energy(sigma->0) =     -147.90942756


--------------------------------------------------------------------------------------------------------




--------------------------------------- Iteration      1(   7)  ---------------------------------------


    POTLOK:  cpu time    0.0667: real time    0.0670
    SETDIJ:  cpu time    0.0200: real time    0.0200
     EDDAV:  cpu time    2.0898: real time    2.0900
       DOS:  cpu time    0.0010: real time    0.0010
    CHARGE:  cpu time    0.1162: real time    0.1162
    MIXING:  cpu time    0.0029: real time    0.0029
    --------------------------------------------
      LOOP:  cpu time    2.2965: real time    2.2971

 eigenvalue-minimisations  :  1168
 total energy-change (2. order) : 0.1071223E-01  (-0.1505226E+00)
 number of electron      96.0000333 magnetization 
 augmentation part        7.8088295 magnetization 

 Broyden mixing:
  rms(total) = 0.46577E+00    rms(broyden)= 0.46567E+00
  rms(prec ) = 0.57706E+00
  weight for this iteration     100.00

 eigenvalues of (default mixing * dielectric matrix)
  average eigenvalue GAMMA=   1.3186
  1.1959  1.4414

 Free energy of the ion-electron system (eV)
  ---------------------------------------------------
  alpha Z        PSCENC =       155.27400407
  Ewald energy   TEWEN  =     -4875.49153190
  -Hartree energ DENC   =     -1432.89861237
  -exchange      EXHF   =         0.00000000
  -V(xc)+E(xc)   XCENC  =       148.23411376
  PAW double counting   =      7112.94179366    -6882.34516811
  entropy T*S    EENTRO =         0.00018851
  eigenvalues    EBANDS =        10.92297289
  atomic energy  EATOM  =      5615.46358700
  Solvation  Ediel_sol  =         0.00000000
  ---------------------------------------------------
  free energy    TOTEN  =      -147.89865250 eV

  energy without entropy =     -147.89884100  energy(sigma->0) =     -147.89871533


--------------------------------------------------------------------------------------------------------




--------------------------------------- Iteration      1(   8)  ---------------------------------------


    POTLOK:  cpu time    0.0641: real time    0.0645
    SETDIJ:  cpu time    0.0199: real time    0.0199
     EDDAV:  cpu time    1.9828: real time    1.9830
       DOS:  cpu time    0.0011: real time    0.0011
    CHARGE:  cpu time    0.1162: real time    0.1162
    MIXING:  cpu time    0.0030: real time    0.0030
    --------------------------------------------
      LOOP:  cpu time    2.1873: real time    2.1878

 eigenvalue-minimisations  :  1096
 total energy-change (2. order) :-0.2570996E-02  (-0.1248783E-01)
 number of electron      96.0000334 magnetization 
 augmentation part        7.8343685 magnetization 

 Broyden mixing:
  rms(total) = 0.12976E+00    rms(broyden)= 0.12976E+00
  rms(prec ) = 0.17395E+00
  weight for this iteration     100.00

 eigenvalues of (default mixing * dielectric matrix)
  average eigenvalue GAMMA=   1.5675
  2.5366  1.0829  1.0829

 Free energy of the ion-electron system (eV)
  ---------------------------------------------------
  alpha Z        PSCENC =       155.27400407
  Ewald energy   TEWEN  =     -4875.49153190
  -Hartree energ DENC   =     -1438.06428704
  -exchange      EXHF   =         0.00000000
  -V(xc)+E(xc)   XCENC  =       148.95565252
  PAW double counting   =      7954.16423688    -7723.37411566
  entropy T*S    EENTRO =         0.00018856
  eigenvalues    EBANDS =        15.17104208
  atomic energy  EATOM  =      5615.46358700
  Solvation  Ediel_sol  =         0.00000000
  ---------------------------------------------------
  free energy    TOTEN  =      -147.90122349 eV

  energy without entropy =     -147.90141206  energy(sigma->0) =     -147.90128635


--------------------------------------------------------------------------------------------------------




--------------------------------------- Iteration      1(   9)  ---------------------------------------


    POTLOK:  cpu time    0.0646: real time    0.0649
    SETDIJ:  cpu time    0.0199: real time    0.0199
     EDDAV:  cpu time    2.0142: real time    2.0144
       DOS:  cpu time    0.0010: real time    0.0010
    CHARGE:  cpu time    0.1163: real time    0.1163
    MIXING:  cpu time    0.0031: real time    0.0031
    --------------------------------------------
      LOOP:  cpu time    2.2191: real time    2.2197

 eigenvalue-minimisations  :  1120
 total energy-change (2. order) :-0.1062039E-01  (-0.3394020E-02)
 number of electron      96.0000334 magnetization 
 augmentation part        7.8167664 magnetization 

 Broyden mixing:
  rms(total) = 0.37628E-01    rms(broyden)= 0.37623E-01
  rms(prec ) = 0.39582E-01
  weight for this iteration     100.00

 eigenvalues of (default mixing * dielectric matrix)
  average eigenvalue GAMMA=   1.7862
  1.0292  1.0292  2.5432  2.5432

 Free energy of the ion-electron system (eV)
  ---------------------------------------------------
  alpha Z        PSCENC =       155.27400407
  Ewald energy   TEWEN  =     -4875.49153190
  -Hartree energ DENC   =     -1445.01851882
  -exchange      EXHF   =         0.00000000
  -V(xc)+E(xc)   XCENC  =       149.63814501
  PAW double counting   =      8265.85661428    -8035.08121356
  entropy T*S    EENTRO =         0.00018859
  eigenvalues    EBANDS =        21.44688145
  atomic energy  EATOM  =      5615.46358700
  Solvation  Ediel_sol  =         0.00000000
  ---------------------------------------------------
  free energy    TOTEN  =      -147.91184389 eV

  energy without entropy =     -147.91203248  energy(sigma->0) =     -147.91190675


--------------------------------------------------------------------------------------------------------




--------------------------------------- Iteration      1(  10)  ---------------------------------------


    POTLOK:  cpu time    0.0639: real time    0.0642
    SETDIJ:  cpu time    0.0200: real time    0.0200
     EDDAV:  cpu time    2.0415: real time    2.0420
       DOS:  cpu time    0.0011: real time    0.0011
    CHARGE:  cpu time    0.1179: real time    0.1179
    MIXING:  cpu time    0.0036: real time    0.0036
    --------------------------------------------
      LOOP:  cpu time    2.2480: real time    2.2489

 eigenvalue-minimisations  :  1120
 total energy-change (2. order) :-0.1479324E-02  (-0.5026955E-03)
 number of electron      96.0000334 magnetization 
 augmentation part        7.8118845 magnetization 

 Broyden mixing:
  rms(total) = 0.13409E-01    rms(broyden)= 0.13399E-01
  rms(prec ) = 0.18804E-01
  weight for this iteration     100.00

 eigenvalues of (default mixing * dielectric matrix)
  average eigenvalue GAMMA=   1.5408
  2.6503  2.3501  1.0128  1.0128  0.6781

 Free energy of the ion-electron system (eV)
  ---------------------------------------------------
  alpha Z        PSCENC =       155.27400407
  Ewald energy   TEWEN  =     -4875.49153190
  -Hartree energ DENC   =     -1445.60514081
  -exchange      EXHF   =         0.00000000
  -V(xc)+E(xc)   XCENC  =       149.69480436
  PAW double counting   =      8143.86699126    -7913.11316716
  entropy T*S    EENTRO =         0.00018860
  eigenvalues    EBANDS =        21.99694137
  atomic energy  EATOM  =      5615.46358700
  Solvation  Ediel_sol  =         0.00000000
  ---------------------------------------------------
  free energy    TOTEN  =      -147.91332321 eV

  energy without entropy =     -147.91351181  energy(sigma->0) =     -147.91338608


--------------------------------------------------------------------------------------------------------




--------------------------------------- Iteration      1(  11)  ---------------------------------------


    POTLOK:  cpu time    0.0677: real time    0.0680
    SETDIJ:  cpu time    0.0200: real time    0.0200
     EDDAV:  cpu time    2.0096: real time    2.0102
       DOS:  cpu time    0.0011: real time    0.0011
    CHARGE:  cpu time    0.1191: real time    0.1191
    MIXING:  cpu time    0.0034: real time    0.0034
    --------------------------------------------
      LOOP:  cpu time    2.2209: real time    2.2219

 eigenvalue-minimisations  :  1112
 total energy-change (2. order) : 0.2620625E-03  (-0.9694548E-04)
 number of electron      96.0000334 magnetization 
 augmentation part        7.8153989 magnetization 

 Broyden mixing:
  rms(total) = 0.89721E-02    rms(broyden)= 0.89711E-02
  rms(prec ) = 0.10642E-01
  weight for this iteration     100.00

 eigenvalues of (default mixing * dielectric matrix)
  average eigenvalue GAMMA=   1.5669
  2.8060  2.4733  1.0243  1.0243  1.0367  1.0367

 Free energy of the ion-electron system (eV)
  ---------------------------------------------------
  alpha Z        PSCENC =       155.27400407
  Ewald energy   TEWEN  =     -4875.49153190
  -Hartree energ DENC   =     -1445.31002562
  -exchange      EXHF   =         0.00000000
  -V(xc)+E(xc)   XCENC  =       149.67508414
  PAW double counting   =      8148.41325252    -7917.65101055
  entropy T*S    EENTRO =         0.00018860
  eigenvalues    EBANDS =        21.71339060
  atomic energy  EATOM  =      5615.46358700
  Solvation  Ediel_sol  =         0.00000000
  ---------------------------------------------------
  free energy    TOTEN  =      -147.91306115 eV

  energy without entropy =     -147.91324974  energy(sigma->0) =     -147.91312401


--------------------------------------------------------------------------------------------------------




--------------------------------------- Iteration      1(  12)  ---------------------------------------


    POTLOK:  cpu time    0.0641: real time    0.0645
    SETDIJ:  cpu time    0.0199: real time    0.0199
     EDDAV:  cpu time    2.0206: real time    2.0211
       DOS:  cpu time    0.0010: real time    0.0010
    CHARGE:  cpu time    0.1191: real time    0.1191
    MIXING:  cpu time    0.0036: real time    0.0036
    --------------------------------------------
      LOOP:  cpu time    2.2284: real time    2.2292

 eigenvalue-minimisations  :  1120
 total energy-change (2. order) :-0.1227389E-04  (-0.5440596E-04)
 number of electron      96.0000334 magnetization 
 augmentation part        7.8159210 magnetization 

 Broyden mixing:
  rms(total) = 0.23427E-02    rms(broyden)= 0.23342E-02
  rms(prec ) = 0.32986E-02
  weight for this iteration     100.00

 eigenvalues of (default mixing * dielectric matrix)
  average eigenvalue GAMMA=   1.5291
  2.8440  2.4536  1.2702  1.0649  1.0649  1.0031  1.0031

 Free energy of the ion-electron system (eV)
  ---------------------------------------------------
  alpha Z        PSCENC =       155.27400407
  Ewald energy   TEWEN  =     -4875.49153190
  -Hartree energ DENC   =     -1445.29034501
  -exchange      EXHF   =         0.00000000
  -V(xc)+E(xc)   XCENC  =       149.67476145
  PAW double counting   =      8125.99506082    -7895.23533906
  entropy T*S    EENTRO =         0.00018859
  eigenvalues    EBANDS =        21.69654061
  atomic energy  EATOM  =      5615.46358700
  Solvation  Ediel_sol  =         0.00000000
  ---------------------------------------------------
  free energy    TOTEN  =      -147.91307342 eV

  energy without entropy =     -147.91326201  energy(sigma->0) =     -147.91313629


--------------------------------------------------------------------------------------------------------




--------------------------------------- Iteration      1(  13)  ---------------------------------------


    POTLOK:  cpu time    0.0640: real time    0.0643
    SETDIJ:  cpu time    0.0199: real time    0.0199
     EDDAV:  cpu time    1.9701: real time    1.9703
       DOS:  cpu time    0.0012: real time    0.0012
    CHARGE:  cpu time    0.1191: real time    0.1192
    MIXING:  cpu time    0.0038: real time    0.0038
    --------------------------------------------
      LOOP:  cpu time    2.1780: real time    2.1786

 eigenvalue-minimisations  :  1096
 total energy-change (2. order) : 0.6714718E-05  (-0.9140764E-05)
 number of electron      96.0000334 magnetization 
 augmentation part        7.8171825 magnetization 

 Broyden mixing:
  rms(total) = 0.10290E-02    rms(broyden)= 0.10274E-02
  rms(prec ) = 0.13489E-02
  weight for this iteration     100.00

 eigenvalues of (default mixing * dielectric matrix)
  average eigenvalue GAMMA=   1.5085
  2.8408  2.4328  1.8336  1.0400  1.0400  0.8618  1.0095  1.0095

 Free energy of the ion-electron system (eV)
  ---------------------------------------------------
  alpha Z        PSCENC =       155.27400407
  Ewald energy   TEWEN  =     -4875.49153190
  -Hartree energ DENC   =     -1445.13700550
  -exchange      EXHF   =         0.00000000
  -V(xc)+E(xc)   XCENC  =       149.66381126
  PAW double counting   =      8124.92750658    -7894.16342574
  entropy T*S    EENTRO =         0.00018859
  eigenvalues    EBANDS =        21.54979894
  atomic energy  EATOM  =      5615.46358700
  Solvation  Ediel_sol  =         0.00000000
  ---------------------------------------------------
  free energy    TOTEN  =      -147.91306671 eV

  energy without entropy =     -147.91325530  energy(sigma->0) =     -147.91312957


--------------------------------------------------------------------------------------------------------




--------------------------------------- Iteration      1(  14)  ---------------------------------------


    POTLOK:  cpu time    0.0641: real time    0.0645
    SETDIJ:  cpu time    0.0198: real time    0.0198
     EDDAV:  cpu time    1.9873: real time    1.9875
       DOS:  cpu time    0.0010: real time    0.0010
    CHARGE:  cpu time    0.1191: real time    0.1199
    MIXING:  cpu time    0.0040: real time    0.0040
    --------------------------------------------
      LOOP:  cpu time    2.1953: real time    2.1968

 eigenvalue-minimisations  :  1120
 total energy-change (2. order) : 0.1078395E-05  (-0.1125573E-05)
 number of electron      96.0000334 magnetization 
 augmentation part        7.8168299 magnetization 

 Broyden mixing:
  rms(total) = 0.34529E-03    rms(broyden)= 0.34479E-03
  rms(prec ) = 0.41982E-03
  weight for this iteration     100.00

 eigenvalues of (default mixing * dielectric matrix)
  average eigenvalue GAMMA=   1.5304
  2.9071  2.5341  2.2193  0.9900  0.9900  1.0477  1.0477  1.0499  0.9874

 Free energy of the ion-electron system (eV)
  ---------------------------------------------------
  alpha Z        PSCENC =       155.27400407
  Ewald energy   TEWEN  =     -4875.49153190
  -Hartree energ DENC   =     -1445.17913232
  -exchange      EXHF   =         0.00000000
  -V(xc)+E(xc)   XCENC  =       149.66619572
  PAW double counting   =      8124.11995408    -7893.35635786
  entropy T*S    EENTRO =         0.00018859
  eigenvalues    EBANDS =        21.59002699
  atomic energy  EATOM  =      5615.46358700
  Solvation  Ediel_sol  =         0.00000000
  ---------------------------------------------------
  free energy    TOTEN  =      -147.91306563 eV

  energy without entropy =     -147.91325422  energy(sigma->0) =     -147.91312849


--------------------------------------------------------------------------------------------------------




--------------------------------------- Iteration      1(  15)  ---------------------------------------


    POTLOK:  cpu time    0.0640: real time    0.0643
    SETDIJ:  cpu time    0.0199: real time    0.0199
     EDDAV:  cpu time    1.3654: real time    1.3656
       DOS:  cpu time    0.0010: real time    0.0010
    --------------------------------------------
      LOOP:  cpu time    1.4502: real time    1.4507

 eigenvalue-minimisations  :   680
 total energy-change (2. order) : 0.9050200E-07  (-0.3603025E-07)
 number of electron      96.0000334 magnetization 
 augmentation part        7.8168299 magnetization 

 Free energy of the ion-electron system (eV)
  ---------------------------------------------------
  alpha Z        PSCENC =       155.27400407
  Ewald energy   TEWEN  =     -4875.49153190
  -Hartree energ DENC   =     -1445.18806380
  -exchange      EXHF   =         0.00000000
  -V(xc)+E(xc)   XCENC  =       149.66654266
  PAW double counting   =      8123.33965501    -7892.57583503
  entropy T*S    EENTRO =         0.00018859
  eigenvalues    EBANDS =        21.59838786
  atomic energy  EATOM  =      5615.46358700
  Solvation  Ediel_sol  =         0.00000000
  ---------------------------------------------------
  free energy    TOTEN  =      -147.91306554 eV

  energy without entropy =     -147.91325413  energy(sigma->0) =     -147.91312840


--------------------------------------------------------------------------------------------------------




 average (electrostatic) potential at core
  the test charge radii are     1.0406  0.7215
  (the norm of the test charge is              1.0000)
       1 -71.1414       2 -71.1414       3 -71.1414       4 -71.1414       5 -71.1414
       6 -71.1414       7 -71.1414       8 -71.1414       9 -66.7144      10 -66.7144
      11 -66.7144      12 -66.7144      13 -66.7144      14 -66.7144      15 -66.7144
      16 -66.7144      17 -66.5803      18 -66.5803      19 -66.5803      20 -66.5803
 
 
 
 E-fermi :   6.6311     XC(G=0): -11.8701     alpha+bet :-17.2134


 k-point     1 :       0.1250    0.1250    0.1250
  band No.  band energies     occupation 
      1     -12.6277      2.00000
      2     -11.6173      2.00000
      3     -10.7596      2.00000
      4     -10.7115      2.00000
      5     -10.6504      2.00000
      6     -10.2916      2.00000
      7     -10.1154      2.00000
      8      -9.9516      2.00000
      9      -9.9077      2.00000
     10      -9.8462      2.00000
     11      -9.7230      2.00000
     12      -9.5059      2.00000
     13       0.2249      2.00000
     14       0.4104      2.00000
     15       0.4727      2.00000
     16       0.6204      2.00000
     17       1.1506      2.00000
     18       1.2663      2.00000
     19       1.3043      2.00000
     20       1.6012      2.00000
     21       1.7883      2.00000
     22       2.1558      2.00000
     23       2.2313      2.00000
     24       2.4678      2.00000
     25       2.5204      2.00000
     26       2.9293      2.00000
     27       3.5146      2.00000
     28       3.7259      2.00000
     29       3.9327      2.00000
     30       4.2420      2.00000
     31       4.2907      2.00000
     32       4.5712      2.00000
     33       4.6133      2.00000
     34       4.9316      2.00000
     35       5.1206      2.00000
     36       5.2998      2.00000
     37       5.4186      2.00000
     38       5.4225      2.00000
     39       5.5392      2.00000
     40       5.7082      2.00000
     41       5.8145      2.00000
     42       5.8846      2.00000
     43       5.9658      2.00000
     44       6.1236      2.00000
     45       6.2275      2.00000
     46       6.3019      2.00000
     47       6.4674      2.00000
     48       6.6092      1.99998
     49      12.9289      0.00000
     50      15.2974      0.00000
     51      15.4618      0.00000
     52      15.8126      0.00000
     53      16.0554      0.00000
     54      16.7277      0.00000
     55      16.9384      0.00000
     56      17.0233      0.00000
     57      17.3101      0.00000
     58      17.5079      0.00000
     59      17.7567      0.00000

 k-point     2 :       0.3750    0.1250    0.1250
  band No.  band energies     occupation 
      1     -12.2014      2.00000
      2     -11.4977      2.00000
      3     -11.2356      2.00000
      4     -10.8077      2.00000
      5     -10.4990      2.00000
      6     -10.3860      2.00000
      7     -10.2187      2.00000
      8     -10.0741      2.00000
      9     -10.0051      2.00000
     10      -9.8408      2.00000
     11      -9.6475      2.00000
     12      -9.5284      2.00000
     13       0.1770      2.00000
     14       0.4326      2.00000
     15       0.5516      2.00000
     16       0.8219      2.00000
     17       0.9196      2.00000
     18       1.2155      2.00000
     19       1.3701      2.00000
     20       1.4230      2.00000
     21       1.7547      2.00000
     22       2.3196      2.00000
     23       2.5095      2.00000
     24       2.7928      2.00000
     25       2.8861      2.00000
     26       3.3547      2.00000
     27       3.7253      2.00000
     28       3.8704      2.00000
     29       4.1479      2.00000
     30       4.1758      2.00000
     31       4.2770      2.00000
     32       4.4176      2.00000
     33       4.5925      2.00000
     34       4.8337      2.00000
     35       4.9423      2.00000
     36       5.1256      2.00000
     37       5.2182      2.00000
     38       5.3845      2.00000
     39       5.4703      2.00000
     40       5.6298      2.00000
     41       5.7987      2.00000
     42       5.8696      2.00000
     43       5.9524      2.00000
     44       5.9843      2.00000
     45       6.1312      2.00000
     46       6.1430      2.00000
     47       6.5069      2.00000
     48       6.5212      2.00000
     49      14.2403      0.00000
     50      15.1748      0.00000
     51      15.2692      0.00000
     52      15.6196      0.00000
     53      15.8160      0.00000
     54      16.1952      0.00000
     55      16.5421      0.00000
     56      17.0082      0.00000
     57      17.2105      0.00000
     58      17.3094      0.00000
     59      17.4026      0.00000

 k-point     3 :       0.1250    0.3750    0.1250
  band No.  band energies     occupation 
      1     -12.2194      2.00000
      2     -11.5079      2.00000
      3     -11.2700      2.00000
      4     -10.7162      2.00000
      5     -10.4951      2.00000
      6     -10.4270      2.00000
      7     -10.2216      2.00000
      8     -10.1397      2.00000
      9      -9.8963      2.00000
     10      -9.7562      2.00000
     11      -9.7209      2.00000
     12      -9.6210      2.00000
     13       0.3342      2.00000
     14       0.5129      2.00000
     15       0.6613      2.00000
     16       0.9380      2.00000
     17       1.0671      2.00000
     18       1.4069      2.00000
     19       1.6257      2.00000
     20       1.9098      2.00000
     21       2.1215      2.00000
     22       2.3163      2.00000
     23       2.3823      2.00000
     24       2.7299      2.00000
     25       2.9154      2.00000
     26       3.1833      2.00000
     27       3.4287      2.00000
     28       3.5025      2.00000
     29       3.8633      2.00000
     30       3.9105      2.00000
     31       4.0415      2.00000
     32       4.1675      2.00000
     33       4.5655      2.00000
     34       4.7311      2.00000
     35       4.9126      2.00000
     36       5.0568      2.00000
     37       5.1074      2.00000
     38       5.2847      2.00000
     39       5.3584      2.00000
     40       5.4842      2.00000
     41       5.5987      2.00000
     42       5.6657      2.00000
     43       5.8756      2.00000
     44       6.0204      2.00000
     45       6.2555      2.00000
     46       6.3539      2.00000
     47       6.4869      2.00000
     48       6.5430      2.00002
     49      14.2376      0.00000
     50      15.3653      0.00000
     51      15.6943      0.00000
     52      15.7993      0.00000
     53      15.8519      0.00000
     54      16.0385      0.00000
     55      16.6314      0.00000
     56      17.0088      0.00000
     57      17.4609      0.00000
     58      17.6347      0.00000
     59      17.7728      0.00000

 k-point     4 :       0.3750    0.3750    0.1250
  band No.  band energies     occupation 
      1     -11.8265      2.00000
      2     -11.1983      2.00000
      3     -11.1902      2.00000
      4     -10.9913      2.00000
      5     -10.5732      2.00000
      6     -10.4788      2.00000
      7     -10.4281      2.00000
      8     -10.3642      2.00000
      9      -9.8997      2.00000
     10      -9.8513      2.00000
     11      -9.8127      2.00000
     12      -9.6756      2.00000
     13       0.5631      2.00000
     14       0.6326      2.00000
     15       0.7274      2.00000
     16       0.9423      2.00000
     17       1.2451      2.00000
     18       1.4875      2.00000
     19       1.7505      2.00000
     20       1.9199      2.00000
     21       2.1361      2.00000
     22       2.3444      2.00000
     23       2.4589      2.00000
     24       2.9138      2.00000
     25       3.1021      2.00000
     26       3.1929      2.00000
     27       3.3973      2.00000
     28       3.5993      2.00000
     29       3.7068      2.00000
     30       3.9092      2.00000
     31       4.0947      2.00000
     32       4.3048      2.00000
     33       4.5339      2.00000
     34       4.6435      2.00000
     35       4.9716      2.00000
     36       4.9907      2.00000
     37       5.0796      2.00000
     38       5.2130      2.00000
     39       5.3450      2.00000
     40       5.4762      2.00000
     41       5.5000      2.00000
     42       5.6997      2.00000
     43       5.7761      2.00000
     44       5.8678      2.00000
     45       6.0888      2.00000
     46       6.2868      2.00000
     47       6.4200      2.00000
     48       6.4853      2.00000
     49      15.0803      0.00000
     50      15.4168      0.00000
     51      15.5480      0.00000
     52      15.7321      0.00000
     53      16.0997      0.00000
     54      16.2503      0.00000
     55      16.4538      0.00000
     56      16.6227      0.00000
     57      16.9889      0.00000
     58      17.1673      0.00000
     59      17.3204      0.00000

 k-point     5 :       0.1250    0.1250    0.3750
  band No.  band energies     occupation 
      1     -12.4260      2.00000
      2     -12.0542      2.00000
      3     -10.6725      2.00000
      4     -10.5890      2.00000
      5     -10.4355      2.00000
      6     -10.3173      2.00000
      7     -10.2731      2.00000
      8      -9.9695      2.00000
      9      -9.8509      2.00000
     10      -9.7761      2.00000
     11      -9.7384      2.00000
     12      -9.5900      2.00000
     13       0.1906      2.00000
     14       0.3203      2.00000
     15       0.5547      2.00000
     16       0.6789      2.00000
     17       0.8522      2.00000
     18       0.9266      2.00000
     19       1.4259      2.00000
     20       1.5162      2.00000
     21       1.9134      2.00000
     22       2.0142      2.00000
     23       2.3353      2.00000
     24       2.6614      2.00000
     25       2.9462      2.00000
     26       3.3187      2.00000
     27       3.6220      2.00000
     28       3.7038      2.00000
     29       3.9302      2.00000
     30       4.1972      2.00000
     31       4.2190      2.00000
     32       4.4071      2.00000
     33       4.6464      2.00000
     34       4.9817      2.00000
     35       5.1161      2.00000
     36       5.2554      2.00000
     37       5.2922      2.00000
     38       5.3712      2.00000
     39       5.4174      2.00000
     40       5.5699      2.00000
     41       5.7040      2.00000
     42       5.7898      2.00000
     43       5.9545      2.00000
     44       6.1525      2.00000
     45       6.3050      2.00000
     46       6.3902      2.00000
     47       6.5066      2.00000
     48       6.5206      2.00000
     49      13.6227      0.00000
     50      14.5784      0.00000
     51      15.8730      0.00000
     52      16.2992      0.00000
     53      16.3453      0.00000
     54      16.5634      0.00000
     55      16.7796      0.00000
     56      16.9401      0.00000
     57      17.0908      0.00000
     58      17.2419      0.00000
     59      17.6252      0.00000

 k-point     6 :       0.3750    0.1250    0.3750
  band No.  band energies     occupation 
      1     -12.0179      2.00000
      2     -11.6931      2.00000
      3     -11.2742      2.00000
      4     -11.0319      2.00000
      5     -10.3989      2.00000
      6     -10.3098      2.00000
      7     -10.2147      2.00000
      8     -10.0826      2.00000
      9      -9.8893      2.00000
     10      -9.7516      2.00000
     11      -9.6836      2.00000
     12      -9.5644      2.00000
     13       0.0947      2.00000
     14       0.2453      2.00000
     15       0.3395      2.00000
     16       0.3824      2.00000
     17       1.1268      2.00000
     18       1.4025      2.00000
     19       1.5184      2.00000
     20       1.6067      2.00000
     21       2.0629      2.00000
     22       2.3914      2.00000
     23       2.6579      2.00000
     24       2.9358      2.00000
     25       3.0871      2.00000
     26       3.2369      2.00000
     27       3.4090      2.00000
     28       3.8366      2.00000
     29       4.0690      2.00000
     30       4.0799      2.00000
     31       4.2596      2.00000
     32       4.5054      2.00000
     33       4.6197      2.00000
     34       4.8290      2.00000
     35       4.9056      2.00000
     36       5.0667      2.00000
     37       5.1649      2.00000
     38       5.3510      2.00000
     39       5.3996      2.00000
     40       5.5143      2.00000
     41       5.6823      2.00000
     42       5.8349      2.00000
     43       6.0376      2.00000
     44       6.0968      2.00000
     45       6.2455      2.00000
     46       6.3070      2.00000
     47       6.4051      2.00000
     48       6.4353      2.00000
     49      14.6608      0.00000
     50      15.0854      0.00000
     51      15.6104      0.00000
     52      15.7469      0.00000
     53      15.8576      0.00000
     54      16.2850      0.00000
     55      16.5648      0.00000
     56      16.7654      0.00000
     57      16.9962      0.00000
     58      17.1568      0.00000
     59      17.4236      0.00000

 k-point     7 :       0.1250    0.3750    0.3750
  band No.  band energies     occupation 
      1     -12.0299      2.00000
      2     -11.6813      2.00000
      3     -11.3486      2.00000
      4     -11.0576      2.00000
      5     -10.3409      2.00000
      6     -10.1843      2.00000
      7     -10.1415      2.00000
      8     -10.0631      2.00000
      9      -9.8596      2.00000
     10      -9.8220      2.00000
     11      -9.7864      2.00000
     12      -9.6496      2.00000
     13       0.3637      2.00000
     14       0.4438      2.00000
     15       0.6627      2.00000
     16       0.6872      2.00000
     17       1.1807      2.00000
     18       1.4552      2.00000
     19       1.4970      2.00000
     20       1.8268      2.00000
     21       2.0156      2.00000
     22       2.1540      2.00000
     23       2.5640      2.00000
     24       2.7659      2.00000
     25       2.8966      2.00000
     26       3.3286      2.00000
     27       3.5888      2.00000
     28       3.6652      2.00000
     29       3.8735      2.00000
     30       3.9775      2.00000
     31       4.2992      2.00000
     32       4.4666      2.00000
     33       4.5613      2.00000
     34       4.6178      2.00000
     35       4.7475      2.00000
     36       4.9786      2.00000
     37       5.1132      2.00000
     38       5.2754      2.00000
     39       5.3269      2.00000
     40       5.4031      2.00000
     41       5.6438      2.00000
     42       5.7098      2.00000
     43       5.8455      2.00000
     44       5.9140      2.00000
     45       6.2361      2.00000
     46       6.2975      2.00000
     47       6.4113      2.00000
     48       6.4678      2.00000
     49      14.6093      0.00000
     50      15.1945      0.00000
     51      15.6813      0.00000
     52      15.7689      0.00000
     53      16.0485      0.00000
     54      16.3687      0.00000
     55      16.5953      0.00000
     56      16.9748      0.00000
     57      17.1009      0.00000
     58      17.1833      0.00000
     59      17.4891      0.00000

 k-point     8 :       0.3750    0.3750    0.3750
  band No.  band energies     occupation 
      1     -11.6571      2.00000
      2     -11.3617      2.00000
      3     -11.0871      2.00000
      4     -11.0439      2.00000
      5     -10.7062      2.00000
      6     -10.6667      2.00000
      7     -10.4766      2.00000
      8     -10.3349      2.00000
      9      -9.8421      2.00000
     10      -9.7807      2.00000
     11      -9.6884      2.00000
     12      -9.6093      2.00000
     13       0.4829      2.00000
     14       0.5171      2.00000
     15       0.7192      2.00000
     16       0.7732      2.00000
     17       1.3808      2.00000
     18       1.5795      2.00000
     19       1.5851      2.00000
     20       1.9202      2.00000
     21       2.2686      2.00000
     22       2.3617      2.00000
     23       2.6786      2.00000
     24       2.7241      2.00000
     25       2.8976      2.00000
     26       3.1213      2.00000
     27       3.4200      2.00000
     28       3.4710      2.00000
     29       4.0460      2.00000
     30       4.0889      2.00000
     31       4.2125      2.00000
     32       4.4005      2.00000
     33       4.6789      2.00000
     34       4.7187      2.00000
     35       4.9363      2.00000
     36       4.9543      2.00000
     37       5.0072      2.00000
     38       5.2032      2.00000
     39       5.2415      2.00000
     40       5.4326      2.00000
     41       5.5943      2.00000
     42       5.6815      2.00000
     43       5.8867      2.00000
     44       5.9466      2.00000
     45       6.0268      2.00000
     46       6.2099      2.00000
     47       6.2761      2.00000
     48       6.3508      2.00000
     49      15.2753      0.00000
     50      15.4664      0.00000
     51      15.5854      0.00000
     52      15.6733      0.00000
     53      15.9733      0.00000
     54      16.0577      0.00000
     55      16.6039      0.00000
     56      16.7409      0.00000
     57      16.9363      0.00000
     58      16.9876      0.00000
     59      17.2144      0.00000


--------------------------------------------------------------------------------------------------------


 soft charge-density along one line, spin component           1
         0         1         2         3         4         5         6         7         8         9
 total charge-density along one line
 
 pseudopotential strength for first ion, spin component:           1
  8.377  14.276   0.002  -0.001  -0.000   0.008  -0.003  -0.000
 14.276  24.327   0.004  -0.002  -0.000   0.013  -0.005  -0.000
  0.002   0.004   1.982  -0.000   0.000   5.707  -0.000   0.001
 -0.001  -0.002  -0.000   1.982  -0.000  -0.000   5.707  -0.001
 -0.000  -0.000   0.000  -0.000   1.982   0.001  -0.001   5.707
  0.008   0.013   5.707  -0.000   0.001  16.347  -0.001   0.002
 -0.003  -0.005  -0.000   5.707  -0.001  -0.001  16.347  -0.002
 -0.000  -0.000   0.001  -0.001   5.707   0.002  -0.002  16.346
 total augmentation occupancy for first ion, spin component:           1
  5.304  -1.920  -0.192   0.113   0.012   0.028  -0.020  -0.002
 -1.920   0.731   0.064  -0.059  -0.005  -0.009   0.009   0.001
 -0.192   0.064   1.559   0.053  -0.077  -0.151  -0.007   0.010
  0.113  -0.059   0.053   1.454   0.095  -0.008  -0.140  -0.011
  0.012  -0.005  -0.077   0.095   1.612   0.010  -0.011  -0.158
  0.028  -0.009  -0.151  -0.008   0.010   0.016   0.001  -0.001
 -0.020   0.009  -0.007  -0.140  -0.011   0.001   0.015   0.001
 -0.002   0.001   0.010  -0.011  -0.158  -0.001   0.001   0.017


------------------------ aborting loop because EDIFF is reached ----------------------------------------


    CHARGE:  cpu time    0.1195: real time    0.1195
    FORLOC:  cpu time    0.0196: real time    0.0196
    FORNL :  cpu time    0.5640: real time    0.5641
    STRESS:  cpu time    1.7159: real time    1.7161
    FORCOR:  cpu time    0.0893: real time    0.0893
    FORHAR:  cpu time    0.0308: real time    0.0308
    MIXING:  cpu time    0.0048: real time    0.0048
    OFIELD:  cpu time    0.0000: real time    0.0000

  FORCE on cell =-STRESS in cart. coord.  units (eV):
  Direction    XX          YY          ZZ          XY          YZ          ZX
  --------------------------------------------------------------------------------------
  Alpha Z   155.27400   155.27400   155.27400
  Ewald   -1581.80028 -1629.34109 -1664.36266    -0.00000     0.00000    -0.00000
  Hartree   485.23499   474.59684   485.36666     0.00000     0.00000    -0.00000
  E(xc)    -444.32641  -444.21959  -443.75335     0.00000    -0.00000    -0.00000
  Local    -268.02483  -212.00030  -193.80401    -0.00000    -0.00001     0.00000
  n-local  -175.16354  -177.09921  -182.97484     0.11831     0.10800     0.06445
  augment    76.19794    76.37812    77.16970     0.00000    -0.00000     0.00000
  Kinetic  1753.26817  1757.04497  1767.63578    -0.46055    -0.65101    -0.23271
  Fock        0.00000     0.00000     0.00000     0.00000     0.00000     0.00000
  -------------------------------------------------------------------------------------
  Total       0.66004     0.63374     0.55129     0.00000     0.00000     0.00000
  in kB       6.35966     6.10625     5.31182     0.00000     0.00000     0.00000
  external pressure =        5.93 kB  Pullay stress =        0.00 kB


 VOLUME and BASIS-vectors are now :
 -----------------------------------------------------------------------------
  energy-cutoff  :      400.00
  volume of cell :      166.28
      direct lattice vectors                 reciprocal lattice vectors
     4.800139615  0.000000000  0.000000000     0.208327274  0.000000000  0.000000000
     0.000000000  4.936662947  0.000000000     0.000000000  0.202565987  0.000000000
     0.000000000  0.000000000  7.017138544     0.000000000  0.000000000  0.142508231

  length of vectors
     4.800139615  4.936662947  7.017138544     0.208327274  0.202565987  0.142508231


 FORCES acting on ions
    electron-ion (+dipol)            ewald-force                    non-local-force                 convergence-correction
 -----------------------------------------------------------------------------------------------
   0.340E+01 -.299E+01 0.166E+02   -.329E+01 0.706E+00 -.158E+02   -.105E+00 0.229E+01 -.787E+00   0.104E-03 -.172E-04 0.127E-03
   0.340E+01 0.299E+01 -.166E+02   -.329E+01 -.706E+00 0.158E+02   -.105E+00 -.229E+01 0.787E+00   0.104E-03 0.172E-04 -.126E-03
   -.340E+01 -.299E+01 -.166E+02   0.329E+01 0.706E+00 0.158E+02   0.105E+00 0.229E+01 0.787E+00   -.104E-03 -.173E-04 -.127E-03
   -.340E+01 0.299E+01 0.166E+02   0.329E+01 -.706E+00 -.158E+02   0.105E+00 -.229E+01 -.787E+00   -.104E-03 0.173E-04 0.127E-03
   -.340E+01 0.299E+01 -.166E+02   0.329E+01 -.706E+00 0.158E+02   0.105E+00 -.229E+01 0.787E+00   -.104E-03 0.173E-04 -.126E-03
   -.340E+01 -.299E+01 0.166E+02   0.329E+01 0.706E+00 -.158E+02   0.105E+00 0.229E+01 -.787E+00   -.104E-03 -.173E-04 0.127E-03
   0.340E+01 0.299E+01 0.166E+02   -.329E+01 -.706E+00 -.158E+02   -.105E+00 -.229E+01 -.787E+00   0.104E-03 0.172E-04 0.127E-03
   0.340E+01 -.299E+01 -.166E+02   -.329E+01 0.706E+00 0.158E+02   -.105E+00 0.229E+01 0.787E+00   0.104E-03 -.172E-04 -.127E-03
   0.675E+01 0.330E+01 -.185E+02   -.546E+01 -.260E+01 0.195E+02   -.129E+01 -.699E+00 -.989E+00   -.153E-03 0.271E-04 -.704E-03
   0.675E+01 -.330E+01 0.185E+02   -.546E+01 0.260E+01 -.195E+02   -.129E+01 0.699E+00 0.989E+00   -.153E-03 -.271E-04 0.705E-03
   -.675E+01 0.330E+01 0.185E+02   0.546E+01 -.260E+01 -.195E+02   0.129E+01 -.699E+00 0.989E+00   0.152E-03 0.269E-04 0.705E-03
   -.675E+01 -.330E+01 -.185E+02   0.546E+01 0.260E+01 0.195E+02   0.129E+01 0.699E+00 -.989E+00   0.152E-03 -.268E-04 -.706E-03
   -.675E+01 -.330E+01 0.185E+02   0.546E+01 0.260E+01 -.195E+02   0.129E+01 0.699E+00 0.989E+00   0.153E-03 -.268E-04 0.705E-03
   -.675E+01 0.330E+01 -.185E+02   0.546E+01 -.260E+01 0.195E+02   0.129E+01 -.699E+00 -.989E+00   0.153E-03 0.269E-04 -.704E-03
   0.675E+01 -.330E+01 -.185E+02   -.546E+01 0.260E+01 0.195E+02   -.129E+01 0.699E+00 -.989E+00   -.153E-03 -.271E-04 -.706E-03
   0.675E+01 0.330E+01 0.185E+02   -.546E+01 -.260E+01 -.195E+02   -.129E+01 -.699E+00 0.989E+00   -.153E-03 0.271E-04 0.705E-03
   -.201E+02 -.851E-05 -.612E-04   0.210E+02 -.934E-07 0.695E-05   -.918E+00 0.260E-17 0.520E-17   -.251E-03 -.172E-07 -.472E-06
   0.201E+02 -.104E-04 -.920E-04   -.210E+02 -.129E-05 -.157E-04   0.918E+00 -.173E-17 -.173E-17   0.251E-03 0.155E-07 0.497E-06
   0.201E+02 -.130E-04 -.946E-04   -.210E+02 -.308E-05 0.884E-05   0.918E+00 0.260E-17 0.520E-17   0.251E-03 0.155E-07 -.480E-06
   -.201E+02 -.162E-04 -.591E-04   0.210E+02 0.169E-05 -.138E-04   -.918E+00 0.173E-17 0.173E-17   -.251E-03 -.172E-07 0.489E-06
 -----------------------------------------------------------------------------------------------
   0.102E-02 -.753E-04 -.632E-03   0.355E-13 0.214E-13 0.284E-13   0.111E-15 0.116E-15 -.212E-15   0.121E-07 -.592E-09 -.168E-08
 
 
 POSITION                                       TOTAL-FORCE (eV/Angst)
 -----------------------------------------------------------------------------------
      1.21108      0.15499      2.73660         0.001362      0.006691     -0.004604
      1.21108      2.31334      4.28053         0.001362     -0.006691      0.004604
      1.18899      2.62332      0.77197        -0.001362      0.006691      0.004604
      1.18899      4.78167      6.24517        -0.001362     -0.006691     -0.004604
      3.58906      4.78167      4.28053        -0.001362     -0.006691      0.004604
      3.58906      2.62332      2.73660        -0.001362      0.006691     -0.004604
      3.61115      2.31334      6.24517         0.001362     -0.006691     -0.004604
      3.61115      0.15499      0.77197         0.001362      0.006691      0.004604
      0.51396      0.50546      4.59024         0.001932      0.002071      0.002735
      0.51396      1.96287      2.42689         0.001932     -0.002071     -0.002735
      1.88611      2.97380      5.93546        -0.001932      0.002071     -0.002735
      1.88611      4.43120      1.08168        -0.001932     -0.002071      0.002735
      4.28618      4.43120      2.42689        -0.001932     -0.002071     -0.002735
      4.28618      2.97380      4.59024        -0.001932      0.002071      0.002735
      2.91403      1.96287      1.08168         0.001932     -0.002071      0.002735
      2.91403      0.50546      5.93546         0.001932      0.002071     -0.002735
      0.24091      1.23417      0.00000         0.002712      0.000000      0.000000
      2.15916      3.70250      3.50857        -0.002712      0.000000      0.000000
      4.55923      3.70250      0.00000        -0.002712      0.000000      0.000000
      2.64098      1.23417      3.50857         0.002712      0.000000      0.000000
 -----------------------------------------------------------------------------------
    total drift:                                0.001017     -0.000075     -0.000632


--------------------------------------------------------------------------------------------------------



  FREE ENERGIE OF THE ION-ELECTRON SYSTEM (eV)
  ---------------------------------------------------
  free  energy   TOTEN  =      -147.91306554 eV

  energy  without entropy=     -147.91325413  energy(sigma->0) =     -147.91312840
 


--------------------------------------------------------------------------------------------------------


    POTLOK:  cpu time    0.0838: real time    0.0838


--------------------------------------------------------------------------------------------------------


 stress matrix after NEB project (eV)
      0.66004     -0.00000      0.00000
      0.00000      0.63374      0.00000
      0.00000      0.00000      0.55129
  FORCES: max atom, RMS     0.008236    0.005899
  FORCE total and by dimension    0.026383    0.006691
  Stress total and by dimension    1.068270    0.660040
 writing wavefunctions
     LOOP+:  cpu time   34.4297: real time   34.4483
    4ORBIT:  cpu time    0.0000: real time    0.0000

 total amount of memory used by VASP MPI-rank0    72446. kBytes
=======================================================================

   base      :      30000. kBytes
   nonlr-proj:       2133. kBytes
   fftplans  :       5804. kBytes
   grid      :      10312. kBytes
   one-center:         61. kBytes
   wavefun   :      24136. kBytes
 
  
  
 General timing and accounting informations for this job:
 ========================================================
  
                  Total CPU time used (sec):       35.866
                            User time (sec):       35.635
                          System time (sec):        0.231
                         Elapsed time (sec):       36.143
  
                   Maximum memory used (kb):      112588.
                   Average memory used (kb):           0.
  
                          Minor page faults:        52400
                          Major page faults:            0
                 Voluntary context switches:          526
