# LAMMPS data file written by OVITO Basic 3.3.2
20 atoms
2 atom types
0.0 4.846933 xlo xhi
0.0 4.985404 ylo yhi
0.0 7.089941 zlo zhi
8.0e-16 4.3883055532e-16 4.2664191307e-16 xy xz yz

Atoms  # atomic

1 1 1.2221638498 0.1521246177 2.7678775167
2 1 1.2221638498 2.3405773823 4.3220634833
3 1 1.2013026502 2.6448266177 0.7770929833
4 1 1.2013026502 4.8332793823 6.3128480167
5 1 3.6247691502 4.8332793823 4.3220634833
6 1 3.6247691502 2.6448266177 2.7678775167
7 1 3.6456303498 2.3405773823 6.3128480167
8 1 3.6456303498 0.1521246177 0.7770929833
9 2 0.5187236166 0.5083915583 4.6368355939
10 2 0.5187236166 1.9843104417 2.4531054061
11 2 1.9047428834 3.0010935583 5.9980759061
12 2 1.9047428834 4.4770124417 1.0918650939
13 2 4.3282093834 4.4770124417 2.4531054061
14 2 4.3282093834 3.0010935583 4.6368355939
15 2 2.9421901166 1.9843104417 1.0918650939
16 2 2.9421901166 0.5083915583 5.9980759061
17 2 0.2394578779 1.246351 2.4651903288e-32
18 2 2.1840086221 3.739053 3.5449705
19 2 4.6074751221 3.739053 0.0
20 2 2.6629243779 1.246351 3.5449705
