 vasp.6.3.0 20Jan22 (build Jul  1 2024 12:21:46) complex                         
 executed on             LinuxGNU date 2024.10.21  13:13:56
 running    1 mpi-ranks, with    1 threads/rank
 distrk:  each k-point on    1 cores,    1 groups
 distr:  one band on NCORE=   1 cores,    1 groups


--------------------------------------------------------------------------------------------------------


 INCAR:
   SYSTEM = Alumina_orthorombic_cell_under_strain
   ISTART = 0
   ICHARG = 2
   ENCUT = 400
   ALGO = Normal
   PREC = Normal
   ISPIN = 1
   LWAVE = T             (Write WAVECAR)
   LCHARG = T             (Write CHGCAR)
   NPAR = 1
   EDIFF = 1E-6
   NSW = 0
   NELM = 100
   POTIM = 0.5
   IBRION = -1
   ISMEAR = 1
   SIGMA = 0.026
   EDIFFG = -0.001
   ISIF = 2
   LREAL = Auto

 POTCAR:    PAW_PBE Al 04Jan2001                  
 POTCAR:    PAW_PBE O 08Apr2002                   
 POTCAR:    PAW_PBE Al 04Jan2001                  
   SHA256 =  17880443556af62b473fe41b62a467bd001ad55d2cabe504a3f22e34d4e9db96 Al/POTCAR             
   COPYR  = (c) Copyright 04Jan2001 Georg Kresse                                                    
   COPYR  = This file is part of the software VASP. Any use, copying, and all other rights are regul
   COPYR  = If you do not have a valid VASP license, you may not use, copy or distribute this file. 
   VRHFIN =Al: s2p1                                                                                 
   LEXCH  = PE                                                                                      
   EATOM  =    53.5387 eV,    3.9350 Ry                                                             
                                                                                                    
   TITEL  = PAW_PBE Al 04Jan2001                                                                    
   LULTRA =        F    use ultrasoft PP ?                                                          
   IUNSCR =        1    unscreen: 0-lin 1-nonlin 2-no                                               
   RPACOR =    1.500    partial core radius                                                         
   POMASS =   26.981; ZVAL   =    3.000    mass and valenz                                          
   RCORE  =    1.900    outmost cutoff radius                                                       
   RWIGS  =    2.650; RWIGS  =    1.402    wigner-seitz radius (au A)                               
   ENMAX  =  240.300; ENMIN  =  180.225 eV                                                          
   ICORE  =        2    local potential                                                             
   LCOR   =        T    correct aug charges                                                         
   LPAW   =        T    paw PP                                                                      
   EAUG   =  291.052                                                                                
   DEXC   =    0.000                                                                                
   RMAX   =    1.939    core radius for proj-oper                                                   
   RAUG   =    1.300    factor for augmentation sphere                                              
   RDEP   =    1.966    radius for radial grids                                                     
   RDEPT  =    1.856    core radius for aug-charge                                                  
                                                                                                    
   Atomic configuration                                                                             
    6 entries                                                                                       
     n  l   j            E        occ.                                                              
     1  0  0.50     -1511.1048   2.0000                                                             
     2  0  0.50      -108.1629   2.0000                                                             
     2  1  1.50       -69.6402   6.0000                                                             
     3  0  0.50        -7.7528   2.0000                                                             
     3  1  1.50        -2.7121   1.0000                                                             
     3  2  2.50        -2.7212   0.0000                                                             
   Description                                                                                      
     l       E           TYP  RCUT    TYP  RCUT                                                     
     0     -7.7528455     23  1.900                                                                 
     0     -3.3096929     23  1.900                                                                 
     1     -2.7120682     23  1.900                                                                 
     1     13.6058260     23  1.900                                                                 
     2     -2.7211652      7  1.900                                                                 
  local pseudopotential read in
  partial core-charges read in
  partial kinetic energy density read in
  atomic valenz-charges read in
  non local Contribution for L=           0  read in
    real space projection operators read in
  non local Contribution for L=           0  read in
    real space projection operators read in
  non local Contribution for L=           1  read in
    real space projection operators read in
  non local Contribution for L=           1  read in
    real space projection operators read in
    PAW grid and wavefunctions read in

   number of l-projection  operators is LMAX  =           4
   number of lm-projection operators is LMMAX =           8

 POTCAR:    PAW_PBE O 08Apr2002                   
   SHA256 =  818f92134a0a090dccd8ba1447fa70422a3b330e708bb4f08108d8ae51209ddf O/POTCAR              
   COPYR  = (c) Copyright 08Apr2002 Georg Kresse                                                    
   COPYR  = This file is part of the software VASP. Any use, copying, and all other rights are regul
   COPYR  = If you do not have a valid VASP license, you may not use, copy or distribute this file. 
   VRHFIN =O: s2p4                                                                                  
   LEXCH  = PE                                                                                      
   EATOM  =   432.3788 eV,   31.7789 Ry                                                             
                                                                                                    
   TITEL  = PAW_PBE O 08Apr2002                                                                     
   LULTRA =        F    use ultrasoft PP ?                                                          
   IUNSCR =        1    unscreen: 0-lin 1-nonlin 2-no                                               
   RPACOR =    1.200    partial core radius                                                         
   POMASS =   16.000; ZVAL   =    6.000    mass and valenz                                          
   RCORE  =    1.520    outmost cutoff radius                                                       
   RWIGS  =    1.550; RWIGS  =    0.820    wigner-seitz radius (au A)                               
   ENMAX  =  400.000; ENMIN  =  300.000 eV                                                          
   ICORE  =        2    local potential                                                             
   LCOR   =        T    correct aug charges                                                         
   LPAW   =        T    paw PP                                                                      
   EAUG   =  605.392                                                                                
   DEXC   =    0.000                                                                                
   RMAX   =    1.553    core radius for proj-oper                                                   
   RAUG   =    1.300    factor for augmentation sphere                                              
   RDEP   =    1.550    radius for radial grids                                                     
   RDEPT  =    1.329    core radius for aug-charge                                                  
                                                                                                    
   Atomic configuration                                                                             
    4 entries                                                                                       
     n  l   j            E        occ.                                                              
     1  0  0.50      -514.6923   2.0000                                                             
     2  0  0.50       -23.9615   2.0000                                                             
     2  1  0.50        -9.0305   4.0000                                                             
     3  2  1.50        -9.5241   0.0000                                                             
   Description                                                                                      
     l       E           TYP  RCUT    TYP  RCUT                                                     
     0    -23.9615318     23  1.200                                                                 
     0     -9.5240782     23  1.200                                                                 
     1     -9.0304911     23  1.520                                                                 
     1      8.1634956     23  1.520                                                                 
     2     -9.5240782      7  1.500                                                                 
  local pseudopotential read in
  partial core-charges read in
  partial kinetic energy density read in
  kinetic energy density of atom read in
  atomic valenz-charges read in
  non local Contribution for L=           0  read in
    real space projection operators read in
  non local Contribution for L=           0  read in
    real space projection operators read in
  non local Contribution for L=           1  read in
    real space projection operators read in
  non local Contribution for L=           1  read in
    real space projection operators read in
    PAW grid and wavefunctions read in

   number of l-projection  operators is LMAX  =           4
   number of lm-projection operators is LMMAX =           8

 Optimization of the real space projectors (new method)

 maximal supplied QI-value         = 19.84
 optimisation between [QCUT,QGAM] = [ 10.12, 20.44] = [ 28.68,116.96] Ry 
 Optimized for a Real-space Cutoff    1.23 Angstroem

   l    n(q)    QCUT    max X(q) W(low)/X(q) W(high)/X(q)  e(spline) 
   0      7    10.119   176.870    0.49E-04    0.18E-03    0.39E-07
   0      7    10.119   105.762    0.46E-04    0.18E-03    0.38E-07
   1      7    10.119    55.370    0.30E-03    0.37E-03    0.12E-06
   1      7    10.119    20.208    0.27E-03    0.35E-03    0.11E-06
 Optimization of the real space projectors (new method)

 maximal supplied QI-value         = 24.76
 optimisation between [QCUT,QGAM] = [ 10.15, 20.30] = [ 28.85,115.39] Ry 
 Optimized for a Real-space Cutoff    1.38 Angstroem

   l    n(q)    QCUT    max X(q) W(low)/X(q) W(high)/X(q)  e(spline) 
   0      8    10.150    20.381    0.22E-03    0.32E-03    0.29E-06
   0      8    10.150    15.268    0.23E-03    0.35E-03    0.30E-06
   1      8    10.150     5.964    0.46E-03    0.53E-03    0.21E-06
   1      8    10.150     5.382    0.38E-03    0.45E-03    0.19E-06
  PAW_PBE Al 04Jan2001                  :
 energy of atom  1       EATOM=  -53.5387
 kinetic energy error for atom=    0.0005 (will be added to EATOM!!)
  PAW_PBE O 08Apr2002                   :
 energy of atom  2       EATOM= -432.3788
 kinetic energy error for atom=    0.1156 (will be added to EATOM!!)


 POSCAR:    Al  O
  positions in direct lattice
  No initial velocities read in
 exchange correlation table for  LEXCH =        8
   RHO(1)=    0.500       N(1)  =     2000
   RHO(2)=  100.500       N(2)  =     4000



--------------------------------------------------------------------------------------------------------


 ion  position               nearest neighbor table
   1  0.126  0.016  0.390-  70 2.02  52 2.04  46 2.08  77 2.13  37 2.14  33 2.19   5 2.89  18 3.11
                            20 3.15
   2  0.126  0.516  0.390-  69 2.02  51 2.04  45 2.08  78 2.13  38 2.14  34 2.19   6 2.89  17 3.11
                            19 3.15
   3  0.626  0.016  0.390-  72 2.02  50 2.04  48 2.08  79 2.13  39 2.14  35 2.19   7 2.89  20 3.11
                            18 3.15
   4  0.626  0.516  0.390-  71 2.02  49 2.04  47 2.08  80 2.13  40 2.14  36 2.19   8 2.89  19 3.11
                            17 3.15
   5  0.126  0.234  0.610-  69 2.02  55 2.04  41 2.08  77 2.13  33 2.14  37 2.19   1 2.89  21 3.11
                            23 3.15
   6  0.126  0.734  0.610-  70 2.02  56 2.04  42 2.08  78 2.13  34 2.14  38 2.19   2 2.89  22 3.11
                            24 3.15
   7  0.626  0.234  0.610-  71 2.02  53 2.04  43 2.08  79 2.13  35 2.14  39 2.19   3 2.89  23 3.11
                            21 3.15
   8  0.626  0.734  0.610-  72 2.02  54 2.04  44 2.08  80 2.13  36 2.14  40 2.19   4 2.89  24 3.11
                            22 3.15
   9  0.124  0.266  0.110-  65 2.02  57 2.04  37 2.08  75 2.13  45 2.14  41 2.19  13 2.89  27 3.11
                            25 3.15
  10  0.124  0.766  0.110-  66 2.02  58 2.04  38 2.08  76 2.13  46 2.14  42 2.19  14 2.89  28 3.11
                            26 3.15
  11  0.624  0.266  0.110-  67 2.02  59 2.04  39 2.08  73 2.13  47 2.14  43 2.19  15 2.89  25 3.11
                            27 3.15
  12  0.624  0.766  0.110-  68 2.02  60 2.04  40 2.08  74 2.13  48 2.14  44 2.19  16 2.89  26 3.11
                            28 3.15
  13  0.124  0.484  0.890-  66 2.02  62 2.04  34 2.08  75 2.13  41 2.14  45 2.19   9 2.89  32 3.11
                            30 3.15
  14  0.124  0.984  0.890-  65 2.02  61 2.04  33 2.08  76 2.13  42 2.14  46 2.19  10 2.89  31 3.11
                            29 3.15
  15  0.624  0.484  0.890-  68 2.02  64 2.04  36 2.08  73 2.13  43 2.14  47 2.19  11 2.89  30 3.11
                            32 3.15
  16  0.624  0.984  0.890-  67 2.02  63 2.04  35 2.08  74 2.13  44 2.14  48 2.19  12 2.89  29 3.11
                            31 3.15
  17  0.374  0.484  0.610-  78 2.02  36 2.04  62 2.08  69 2.13  53 2.14  49 2.19  21 2.89   2 3.11
                             4 3.15
  18  0.374  0.984  0.610-  77 2.02  35 2.04  61 2.08  70 2.13  54 2.14  50 2.19  22 2.89   1 3.11
                             3 3.15
  19  0.874  0.484  0.610-  80 2.02  34 2.04  64 2.08  71 2.13  55 2.14  51 2.19  23 2.89   4 3.11
                             2 3.15
  20  0.874  0.984  0.610-  79 2.02  33 2.04  63 2.08  72 2.13  56 2.14  52 2.19  24 2.89   3 3.11
                             1 3.15
  21  0.374  0.266  0.390-  77 2.02  39 2.04  57 2.08  69 2.13  49 2.14  53 2.19  17 2.89   5 3.11
                             7 3.15
  22  0.374  0.766  0.390-  78 2.02  40 2.04  58 2.08  70 2.13  50 2.14  54 2.19  18 2.89   6 3.11
                             8 3.15
  23  0.874  0.266  0.390-  79 2.02  37 2.04  59 2.08  71 2.13  51 2.14  55 2.19  19 2.89   7 3.11
                             5 3.15
  24  0.874  0.766  0.390-  80 2.02  38 2.04  60 2.08  72 2.13  52 2.14  56 2.19  20 2.89   8 3.11
                             6 3.15
  25  0.376  0.234  0.890-  73 2.02  41 2.04  53 2.08  67 2.13  61 2.14  57 2.19  29 2.89  11 3.11
                             9 3.15
  26  0.376  0.734  0.890-  74 2.02  42 2.04  54 2.08  68 2.13  62 2.14  58 2.19  30 2.89  12 3.11
                            10 3.15
  27  0.876  0.234  0.890-  75 2.02  43 2.04  55 2.08  65 2.13  63 2.14  59 2.19  31 2.89   9 3.11
                            11 3.15
  28  0.876  0.734  0.890-  76 2.02  44 2.04  56 2.08  66 2.13  64 2.14  60 2.19  32 2.89  10 3.11
                            12 3.15
  29  0.376  0.016  0.110-  74 2.02  46 2.04  50 2.08  67 2.13  57 2.14  61 2.19  25 2.89  16 3.11
                            14 3.15
  30  0.376  0.516  0.110-  73 2.02  45 2.04  49 2.08  68 2.13  58 2.14  62 2.19  26 2.89  15 3.11
                            13 3.15
  31  0.876  0.016  0.110-  76 2.02  48 2.04  52 2.08  65 2.13  59 2.14  63 2.19  27 2.89  14 3.11
                            16 3.15
  32  0.876  0.516  0.110-  75 2.02  47 2.04  51 2.08  66 2.13  60 2.14  64 2.19  28 2.89  13 3.11
                            15 3.15
  33  0.054  0.051  0.654-  20 2.04  14 2.08   5 2.14   1 2.19
  34  0.054  0.551  0.654-  19 2.04  13 2.08   6 2.14   2 2.19
  35  0.554  0.051  0.654-  18 2.04  16 2.08   7 2.14   3 2.19
  36  0.554  0.551  0.654-  17 2.04  15 2.08   8 2.14   4 2.19
  37  0.054  0.199  0.346-  23 2.04   9 2.08   1 2.14   5 2.19
  38  0.054  0.699  0.346-  24 2.04  10 2.08   2 2.14   6 2.19
  39  0.554  0.199  0.346-  21 2.04  11 2.08   3 2.14   7 2.19
  40  0.554  0.699  0.346-  22 2.04  12 2.08   4 2.14   8 2.19
  41  0.196  0.301  0.846-  25 2.04   5 2.08  13 2.14   9 2.19
  42  0.196  0.801  0.846-  26 2.04   6 2.08  14 2.14  10 2.19
  43  0.696  0.301  0.846-  27 2.04   7 2.08  15 2.14  11 2.19
  44  0.696  0.801  0.846-  28 2.04   8 2.08  16 2.14  12 2.19
  45  0.196  0.449  0.154-  30 2.04   2 2.08   9 2.14  13 2.19
  46  0.196  0.949  0.154-  29 2.04   1 2.08  10 2.14  14 2.19
  47  0.696  0.449  0.154-  32 2.04   4 2.08  11 2.14  15 2.19
  48  0.696  0.949  0.154-  31 2.04   3 2.08  12 2.14  16 2.19
  49  0.446  0.449  0.346-   4 2.04  30 2.08  21 2.14  17 2.19
  50  0.446  0.949  0.346-   3 2.04  29 2.08  22 2.14  18 2.19
  51  0.946  0.449  0.346-   2 2.04  32 2.08  23 2.14  19 2.19
  52  0.946  0.949  0.346-   1 2.04  31 2.08  24 2.14  20 2.19
  53  0.446  0.301  0.654-   7 2.04  25 2.08  17 2.14  21 2.19
  54  0.446  0.801  0.654-   8 2.04  26 2.08  18 2.14  22 2.19
  55  0.946  0.301  0.654-   5 2.04  27 2.08  19 2.14  23 2.19
  56  0.946  0.801  0.654-   6 2.04  28 2.08  20 2.14  24 2.19
  57  0.304  0.199  0.154-   9 2.04  21 2.08  29 2.14  25 2.19
  58  0.304  0.699  0.154-  10 2.04  22 2.08  30 2.14  26 2.19
  59  0.804  0.199  0.154-  11 2.04  23 2.08  31 2.14  27 2.19
  60  0.804  0.699  0.154-  12 2.04  24 2.08  32 2.14  28 2.19
  61  0.304  0.051  0.846-  14 2.04  18 2.08  25 2.14  29 2.19
  62  0.304  0.551  0.846-  13 2.04  17 2.08  26 2.14  30 2.19
  63  0.804  0.051  0.846-  16 2.04  20 2.08  27 2.14  31 2.19
  64  0.804  0.551  0.846-  15 2.04  19 2.08  28 2.14  32 2.19
  65  0.025  0.125  0.000-  14 2.02   9 2.02  27 2.13  31 2.13
  66  0.025  0.625  0.000-  13 2.02  10 2.02  28 2.13  32 2.13
  67  0.525  0.125  0.000-  16 2.02  11 2.02  25 2.13  29 2.13
  68  0.525  0.625  0.000-  15 2.02  12 2.02  26 2.13  30 2.13
  69  0.225  0.375  0.500-   5 2.02   2 2.02  17 2.13  21 2.13
  70  0.225  0.875  0.500-   6 2.02   1 2.02  18 2.13  22 2.13
  71  0.725  0.375  0.500-   7 2.02   4 2.02  19 2.13  23 2.13
  72  0.725  0.875  0.500-   8 2.02   3 2.02  20 2.13  24 2.13
  73  0.475  0.375  0.000-  25 2.02  30 2.02  15 2.13  11 2.13
  74  0.475  0.875  0.000-  29 2.02  26 2.02  16 2.13  12 2.13
  75  0.975  0.375  0.000-  27 2.02  32 2.02  13 2.13   9 2.13
  76  0.975  0.875  0.000-  31 2.02  28 2.02  14 2.13  10 2.13
  77  0.275  0.125  0.500-  18 2.02  21 2.02   5 2.13   1 2.13
  78  0.275  0.625  0.500-  17 2.02  22 2.02   6 2.13   2 2.13
  79  0.775  0.125  0.500-  20 2.02  23 2.02   7 2.13   3 2.13
  80  0.775  0.625  0.500-  19 2.02  24 2.02   8 2.13   4 2.13

  LATTYP: Found a simple orthorhombic cell.
 ALAT       =     7.6550475153
 B/A-ratio  =     1.3681458986
 C/A-ratio  =     1.4070268484
  
  Lattice vectors:
  
 A1 = (   0.0000000000,   0.0000000000,   7.6550475153)
 A2 = (  10.4732218615,   0.0000000000,   0.0000000000)
 A3 = (   0.0000000000,  10.7708573800,   0.0000000000)


Analysis of symmetry for initial positions (statically):
=====================================================================
 Subroutine PRICEL returns following result:
 
  LATTYP: Found a simple orthorhombic cell.
 ALAT       =     5.2366109310
 B/A-ratio  =     1.0284187391
 C/A-ratio  =     1.4618323981
  
  Lattice vectors:
  
 A1 = (   5.2366109310,   0.0000000000,   0.0000000000)
 A2 = (   0.0000000000,   5.3854288107,   0.0000000000)
 A3 = (   0.0000000000,   0.0000000000,   7.6550475153)
 
   4 primitive cells build up your supercell.
 

 Routine SETGRP: Setting up the symmetry group for a 
 simple orthorhombic supercell.


 Subroutine GETGRP returns: Found  8 space group operations
 (whereof  2 operations were pure point group operations)
 out of a pool of  8 trial point group operations.


The static configuration has the point symmetry S_2 .
 The point group associated with its full space group is D_2h.


Analysis of symmetry for dynamics (positions and initial velocities):
=====================================================================
 Subroutine PRICEL returns following result:
 
  LATTYP: Found a simple orthorhombic cell.
 ALAT       =     5.2366109310
 B/A-ratio  =     1.0284187391
 C/A-ratio  =     1.4618323981
  
  Lattice vectors:
  
 A1 = (   5.2366109310,   0.0000000000,   0.0000000000)
 A2 = (   0.0000000000,   5.3854288107,   0.0000000000)
 A3 = (   0.0000000000,   0.0000000000,   7.6550475153)
 
   4 primitive cells build up your supercell.
 

 Routine SETGRP: Setting up the symmetry group for a 
 simple orthorhombic supercell.


 Subroutine GETGRP returns: Found  8 space group operations
 (whereof  2 operations were pure point group operations)
 out of a pool of  8 trial point group operations.


The dynamic configuration has the point symmetry S_2 .
 The point group associated with its full space group is D_2h.


Analysis of constrained symmetry for selective dynamics:
=====================================================================
 Subroutine PRICEL returns following result:
 
  LATTYP: Found a simple orthorhombic cell.
 ALAT       =     5.2366109310
 B/A-ratio  =     1.0284187391
 C/A-ratio  =     1.4618323981
  
  Lattice vectors:
  
 A1 = (   5.2366109310,   0.0000000000,   0.0000000000)
 A2 = (   0.0000000000,   5.3854288107,   0.0000000000)
 A3 = (   0.0000000000,   0.0000000000,   7.6550475153)
 
   4 primitive cells build up your supercell.
 

 Routine SETGRP: Setting up the symmetry group for a 
 simple orthorhombic supercell.


 Subroutine GETGRP returns: Found  8 space group operations
 (whereof  2 operations were pure point group operations)
 out of a pool of  8 trial point group operations.


The constrained configuration has the point symmetry S_2 .
 The point group associated with its full space group is D_2h.


 Subroutine INISYM returns: Found  8 space group operations
 (whereof  2 operations are pure point group operations),
 and found     4 'primitive' translations


----------------------------------------------------------------------------------------

                                     Primitive cell                                     

  volume of cell :     215.8830

  direct lattice vectors                    reciprocal lattice vectors
     5.236610931  0.000000000  0.000000000     0.190963204  0.000000000  0.000000000
     0.000000000  5.385428811  0.000000000     0.000000000  0.185686235  0.000000000
     0.000000000  0.000000000  7.655047515     0.000000000  0.000000000  0.130632762

  length of vectors
     5.236610931  5.385428811  7.655047515     0.190963204  0.185686235  0.130632762

  position of ions in fractional coordinates (direct lattice)
     0.252301010  0.031394432  0.389988368
     0.252301010  0.468605564  0.610011602
     0.247698990  0.531394421  0.110011610
     0.247698990  0.968605501  0.889988398
     0.747698961  0.968605501  0.610011602
     0.747698961  0.531394421  0.389988368
     0.752301039  0.468605564  0.889988398
     0.752301039  0.031394432  0.110011610
     0.107072531  0.102390997  0.654148561
     0.107072531  0.397608992  0.345851469
     0.392927454  0.602391023  0.845851439
     0.392927454  0.897608899  0.154148517
     0.892927514  0.897608899  0.345851469
     0.892927514  0.602391023  0.654148561
     0.607072486  0.397608992  0.154148517
     0.607072486  0.102390997  0.845851439
     0.050188047  0.249999994  0.000000000
     0.449811960  0.749999961  0.500000000
     0.949811900  0.749999961  0.000000000
     0.550188099  0.249999994  0.500000000

  ion indices of the primitive-cell ions
   primitive index   ion index
                 1           1
                 2           5
                 3          10
                 4          14
                 5          18
                 6          22
                 7          27
                 8          31
                 9          33
                10          37
                11          42
                12          46
                13          52
                14          56
                15          57
                16          61
                17          65
                18          70
                19          76
                20          77

----------------------------------------------------------------------------------------



 KPOINTS: k-points                                

Automatic generation of k-mesh.
 Grid dimensions read from file:
 generate k-points for:    4    4    4

 Generating k-lattice:

  Cartesian coordinates                     Fractional coordinates (reciprocal lattice)
     0.023870400  0.000000000  0.000000000     0.250000000  0.000000000  0.000000000
     0.000000000  0.023210780  0.000000000     0.000000000  0.250000000  0.000000000
     0.000000000  0.000000000  0.032658190     0.000000000  0.000000000  0.250000000

  Length of vectors
     0.023870400  0.023210780  0.032658190

  Shift w.r.t. Gamma in fractional coordinates (k-lattice)
     0.500000000  0.500000000  0.500000000

 
 Subroutine IBZKPT returns following result:
 ===========================================
 
 Found      8 irreducible k-points:
 
 Following reciprocal coordinates:
            Coordinates               Weight
  0.125000  0.125000  0.125000      8.000000
  0.375000  0.125000  0.125000      8.000000
  0.125000  0.375000  0.125000      8.000000
  0.375000  0.375000  0.125000      8.000000
  0.125000  0.125000  0.375000      8.000000
  0.375000  0.125000  0.375000      8.000000
  0.125000  0.375000  0.375000      8.000000
  0.375000  0.375000  0.375000      8.000000
 
 Following cartesian coordinates:
            Coordinates               Weight
  0.011935  0.011605  0.016329      8.000000
  0.035806  0.011605  0.016329      8.000000
  0.011935  0.034816  0.016329      8.000000
  0.035806  0.034816  0.016329      8.000000
  0.011935  0.011605  0.048987      8.000000
  0.035806  0.011605  0.048987      8.000000
  0.011935  0.034816  0.048987      8.000000
  0.035806  0.034816  0.048987      8.000000
 


--------------------------------------------------------------------------------------------------------




 Dimension of arrays:
   k-points           NKPTS =      8   k-points in BZ     NKDIM =      8   number of bands    NBANDS=    233
   number of dos      NEDOS =    301   number of ions     NIONS =     80
   non local maximal  LDIM  =      4   non local SUM 2l+1 LMDIM =      8
   total plane-waves  NPLWV = 116640
   max r-space proj   IRMAX =   1538   max aug-charges    IRDMAX=   5456
   dimension x,y,z NGX =    54 NGY =   54 NGZ =   40
   dimension x,y,z NGXF=   108 NGYF=  108 NGZF=   80
   support grid    NGXF=   108 NGYF=  108 NGZF=   80
   ions per type =              32  48
   NGX,Y,Z   is equivalent  to a cutoff of   8.57,  8.33,  8.69 a.u.
   NGXF,Y,Z  is equivalent  to a cutoff of  17.14, 16.67, 17.37 a.u.

 SYSTEM =  Alumina_orthorombic_cell_under_strain   
 POSCAR =     Al  O                                

 Startparameter for this run:
   NWRITE =      2    write-flag & timer
   PREC   = normal    normal or accurate (medium, high low for compatibility)
   ISTART =      0    job   : 0-new  1-cont  2-samecut
   ICHARG =      2    charge: 1-file 2-atom 10-const
   ISPIN  =      1    spin polarized calculation?
   LNONCOLLINEAR =      F non collinear calculations
   LSORBIT =      F    spin-orbit coupling
   INIWAV =      1    electr: 0-lowe 1-rand  2-diag
   LASPH  =      F    aspherical Exc in radial PAW
 Electronic Relaxation 1
   ENCUT  =  400.0 eV  29.40 Ry    5.42 a.u.  17.08 17.56 12.48*2*pi/ulx,y,z
   ENINI  =  400.0     initial cutoff
   ENAUG  =  605.4 eV  augmentation charge cutoff
   NELM   =    100;   NELMIN=  2; NELMDL= -5     # of ELM steps 
   EDIFF  = 0.1E-05   stopping-criterion for ELM
   LREAL  =      T    real-space projection
   NLSPLINE    = F    spline interpolate recip. space projectors
   LCOMPAT=      F    compatible to vasp.4.4
   GGA_COMPAT  = T    GGA compatible to vasp.4.4-vasp.4.6
   LMAXPAW     = -100 max onsite density
   LMAXMIX     =    2 max onsite mixed and CHGCAR
   VOSKOWN=      0    Vosko Wilk Nusair interpolation
   ROPT   =   -0.00050  -0.00050
 Ionic relaxation
   EDIFFG = -.1E-02   stopping-criterion for IOM
   NSW    =      0    number of steps for IOM
   NBLOCK =      1;   KBLOCK =      1    inner block; outer block 
   IBRION =     -1    ionic relax: 0-MD 1-quasi-New 2-CG
   NFREE  =      0    steps in history (QN), initial steepest desc. (CG)
   ISIF   =      2    stress and relaxation
   IWAVPR =     10    prediction:  0-non 1-charg 2-wave 3-comb
   ISYM   =      2    0-nonsym 1-usesym 2-fastsym
   LCORR  =      T    Harris-Foulkes like correction to forces

   POTIM  = 0.5000    time-step for ionic-motion
   TEIN   =    0.0    initial temperature
   TEBEG  =    0.0;   TEEND  =   0.0 temperature during run
   SMASS  =  -3.00    Nose mass-parameter (am)
   estimated Nose-frequenzy (Omega)   =  0.10E-29 period in steps = 0.13E+47 mass=  -0.251E-26a.u.
   SCALEE = 1.0000    scale energy and forces
   NPACO  =    256;   APACO  = 10.0  distance and # of slots for P.C.
   PSTRESS=    0.0 pullay stress

  Mass of Ions in am
   POMASS =  26.98 16.00
  Ionic Valenz
   ZVAL   =   3.00  6.00
  Atomic Wigner-Seitz radii
   RWIGS  =  -1.00 -1.00
  virtual crystal weights 
   VCA    =   1.00  1.00
   NELECT =     384.0000    total number of electrons
   NUPDOWN=      -1.0000    fix difference up-down

 DOS related values:
   EMIN   =  10.00;   EMAX   =-10.00  energy-range for DOS
   EFERMI =   0.00
   ISMEAR =     1;   SIGMA  =   0.03  broadening in eV -4-tet -1-fermi 0-gaus

 Electronic relaxation 2 (details)
   IALGO  =     38    algorithm
   LDIAG  =      T    sub-space diagonalisation (order eigenvalues)
   LSUBROT=      F    optimize rotation matrix (better conditioning)
   TURBO    =      0    0=normal 1=particle mesh
   IRESTART =      0    0=no restart 2=restart with 2 vectors
   NREBOOT  =      0    no. of reboots
   NMIN     =      0    reboot dimension
   EREF     =   0.00    reference energy to select bands
   IMIX   =      4    mixing-type and parameters
     AMIX     =   0.40;   BMIX     =  1.00
     AMIX_MAG =   1.60;   BMIX_MAG =  1.00
     AMIN     =   0.10
     WC   =   100.;   INIMIX=   1;  MIXPRE=   1;  MAXMIX= -45

 Intra band minimization:
   WEIMIN = 0.0000     energy-eigenvalue tresh-hold
   EBREAK =  0.11E-08  absolut break condition
   DEPER  =   0.30     relativ break condition  

   TIME   =   0.40     timestep for ELM

  volume/ion in A,a.u.               =      10.79        72.84
  Fermi-wavevector in a.u.,A,eV,Ry     =   1.249566  2.361337 21.244332  1.561414
  Thomas-Fermi vector in A             =   2.383600

 Write flags
   LWAVE        =      T    write WAVECAR
   LDOWNSAMPLE  =      F    k-point downsampling of WAVECAR
   LCHARG       =      T    write CHGCAR
   LVTOT        =      F    write LOCPOT, total local potential
   LVHAR        =      F    write LOCPOT, Hartree potential only
   LELF         =      F    write electronic localiz. function (ELF)
   LORBIT       =      0    0 simple, 1 ext, 2 COOP (PROOUT), +10 PAW based schemes


 Dipole corrections
   LMONO  =      F    monopole corrections only (constant potential shift)
   LDIPOL =      F    correct potential (dipole corrections)
   IDIPOL =      0    1-x, 2-y, 3-z, 4-all directions 
   EPSILON=  1.0000000 bulk dielectric constant

 Exchange correlation treatment:
   GGA     =    --    GGA type
   LEXCH   =     8    internal setting for exchange type
   LIBXC   =     F    Libxc                    
   VOSKOWN =     0    Vosko Wilk Nusair interpolation
   LHFCALC =     F    Hartree Fock is set to
   LHFONE  =     F    Hartree Fock one center treatment
   AEXX    =    0.0000 exact exchange contribution

 Linear response parameters
   LEPSILON=     F    determine dielectric tensor
   LRPA    =     F    only Hartree local field effects (RPA)
   LNABLA  =     F    use nabla operator in PAW spheres
   LVEL    =     F    velocity operator in full k-point grid
   CSHIFT  =0.1000    complex shift for real part using Kramers Kronig
   OMEGAMAX=  -1.0    maximum frequency
   DEG_THRESHOLD= 0.2000000E-02 threshold for treating states as degnerate
   RTIME   =   -0.100 relaxation time in fs
  (WPLASMAI=    0.000 imaginary part of plasma frequency in eV, 0.658/RTIME)
   DFIELD  = 0.0000000 0.0000000 0.0000000 field for delta impulse in time

  Optional k-point grid parameters
   LKPOINTS_OPT  =     F    use optional k-point grid
   KPOINTS_OPT_MODE=     1    mode for optional k-point grid

 Orbital magnetization related:
   ORBITALMAG=     F  switch on orbital magnetization
   LCHIMAG   =     F  perturbation theory with respect to B field
   DQ        =  0.001000  dq finite difference perturbation B field
   LLRAUG    =     F  two centre corrections for induced B field



--------------------------------------------------------------------------------------------------------


 Static calculation
 charge density and potential will be updated during run
 non-spin polarized calculation
 Variant of blocked Davidson
 Davidson routine will perform the subspace rotation
 perform sub-space diagonalisation
    after iterative eigenvector-optimisation
 modified Broyden-mixing scheme, WC =      100.0
 initial mixing is a Kerker type mixing with AMIX =  0.4000 and BMIX =      1.0000
 Hartree-type preconditioning will be used
 using additional bands           41
 real space projection scheme for non local part
 use partial core corrections
 calculate Harris-corrections to forces   (improved forces if not selfconsistent)
 use gradient corrections 
 use of overlap-Matrix (Vanderbilt PP)
 Methfessel and Paxton  Order N= 1 SIGMA  =   0.03


--------------------------------------------------------------------------------------------------------


  energy-cutoff  :      400.00
  volume of cell :      863.53
      direct lattice vectors                 reciprocal lattice vectors
    10.473221861  0.000000000  0.000000000     0.095481602  0.000000000  0.000000000
     0.000000000 10.770857380  0.000000000     0.000000000  0.092843120  0.000000000
     0.000000000  0.000000000  7.655047515     0.000000000  0.000000000  0.130632762

  length of vectors
    10.473221861 10.770857380  7.655047515     0.095481602  0.092843120  0.130632762



 k-points in units of 2pi/SCALE and weight: k-points                                
   0.01193520  0.01160539  0.01632910       0.125
   0.03580560  0.01160539  0.01632910       0.125
   0.01193520  0.03481617  0.01632910       0.125
   0.03580560  0.03481617  0.01632910       0.125
   0.01193520  0.01160539  0.04898729       0.125
   0.03580560  0.01160539  0.04898729       0.125
   0.01193520  0.03481617  0.04898729       0.125
   0.03580560  0.03481617  0.04898729       0.125

 k-points in reciprocal lattice and weights: k-points                                
   0.12500000  0.12500000  0.12500000       0.125
   0.37500000  0.12500000  0.12500000       0.125
   0.12500000  0.37500000  0.12500000       0.125
   0.37500000  0.37500000  0.12500000       0.125
   0.12500000  0.12500000  0.37500000       0.125
   0.37500000  0.12500000  0.37500000       0.125
   0.12500000  0.37500000  0.37500000       0.125
   0.37500000  0.37500000  0.37500000       0.125

 position of ions in fractional coordinates (direct lattice) 
   0.12615050  0.01569722  0.38998837
   0.12615050  0.51569723  0.38998837
   0.62615052  0.01569722  0.38998837
   0.62615052  0.51569723  0.38998837
   0.12615050  0.23430279  0.61001160
   0.12615050  0.73430277  0.61001160
   0.62615052  0.23430279  0.61001160
   0.62615052  0.73430277  0.61001160
   0.12384950  0.26569723  0.11001161
   0.12384950  0.76569723  0.11001161
   0.62384948  0.26569723  0.11001161
   0.62384948  0.76569723  0.11001161
   0.12384950  0.48430277  0.88998840
   0.12384950  0.98430277  0.88998840
   0.62384948  0.48430277  0.88998840
   0.62384948  0.98430277  0.88998840
   0.37384948  0.48430277  0.61001160
   0.37384948  0.98430277  0.61001160
   0.87384948  0.48430277  0.61001160
   0.87384948  0.98430277  0.61001160
   0.37384948  0.26569723  0.38998837
   0.37384948  0.76569723  0.38998837
   0.87384948  0.26569723  0.38998837
   0.87384948  0.76569723  0.38998837
   0.37615052  0.23430279  0.88998840
   0.37615052  0.73430277  0.88998840
   0.87615052  0.23430279  0.88998840
   0.87615052  0.73430277  0.88998840
   0.37615052  0.01569722  0.11001161
   0.37615052  0.51569723  0.11001161
   0.87615052  0.01569722  0.11001161
   0.87615052  0.51569723  0.11001161
   0.05353627  0.05119550  0.65414856
   0.05353627  0.55119553  0.65414856
   0.55353624  0.05119550  0.65414856
   0.55353624  0.55119553  0.65414856
   0.05353627  0.19880450  0.34585147
   0.05353627  0.69880447  0.34585147
   0.55353624  0.19880450  0.34585147
   0.55353624  0.69880447  0.34585147
   0.19646373  0.30119550  0.84585144
   0.19646373  0.80119553  0.84585144
   0.69646370  0.30119550  0.84585144
   0.69646370  0.80119553  0.84585144
   0.19646373  0.44880450  0.15414852
   0.19646373  0.94880447  0.15414852
   0.69646370  0.44880450  0.15414852
   0.69646370  0.94880447  0.15414852
   0.44646376  0.44880450  0.34585147
   0.44646376  0.94880447  0.34585147
   0.94646376  0.44880450  0.34585147
   0.94646376  0.94880447  0.34585147
   0.44646376  0.30119550  0.65414856
   0.44646376  0.80119553  0.65414856
   0.94646376  0.30119550  0.65414856
   0.94646376  0.80119553  0.65414856
   0.30353624  0.19880450  0.15414852
   0.30353624  0.69880447  0.15414852
   0.80353624  0.19880450  0.15414852
   0.80353624  0.69880447  0.15414852
   0.30353624  0.05119550  0.84585144
   0.30353624  0.55119553  0.84585144
   0.80353624  0.05119550  0.84585144
   0.80353624  0.55119553  0.84585144
   0.02509402  0.12500000  0.00000000
   0.02509402  0.62500000  0.00000000
   0.52509405  0.12500000  0.00000000
   0.52509405  0.62500000  0.00000000
   0.22490598  0.37500000  0.50000000
   0.22490598  0.87500000  0.50000000
   0.72490601  0.37500000  0.50000000
   0.72490601  0.87500000  0.50000000
   0.47490595  0.37500000  0.00000000
   0.47490595  0.87500000  0.00000000
   0.97490595  0.37500000  0.00000000
   0.97490595  0.87500000  0.00000000
   0.27509405  0.12500000  0.50000000
   0.27509405  0.62500000  0.50000000
   0.77509405  0.12500000  0.50000000
   0.77509405  0.62500000  0.50000000

 position of ions in cartesian coordinates  (Angst):
   1.32120222  0.16907248  2.98537949
   1.32120222  5.55450129  2.98537949
   6.55781331  0.16907248  2.98537949
   6.55781331  5.55450129  2.98537949
   1.32120222  2.52364191  4.66966780
   1.32120222  7.90907044  4.66966780
   6.55781331  2.52364191  4.66966780
   6.55781331  7.90907044  4.66966780
   1.29710324  2.86178694  0.84214410
   1.29710324  8.24721563  0.84214410
   6.53371402  2.86178694  0.84214410
   6.53371402  8.24721563  0.84214410
   1.29710324  5.21635609  6.81290347
   1.29710324 10.60178478  6.81290347
   6.53371402  5.21635609  6.81290347
   6.53371402 10.60178478  6.81290347
   3.91540855  5.21635609  4.66966780
   3.91540855 10.60178478  4.66966780
   9.15201948  5.21635609  4.66966780
   9.15201948 10.60178478  4.66966780
   3.91540855  2.86178694  2.98537949
   3.91540855  8.24721563  2.98537949
   9.15201948  2.86178694  2.98537949
   9.15201948  8.24721563  2.98537949
   3.93950785  2.52364191  6.81290347
   3.93950785  7.90907044  6.81290347
   9.17611878  2.52364191  6.81290347
   9.17611878  7.90907044  6.81290347
   3.93950785  0.16907248  0.84214410
   3.93950785  5.55450129  0.84214410
   9.17611878  0.16907248  0.84214410
   9.17611878  5.55450129  0.84214410
   0.56069718  0.55141942  5.00753832
   0.56069718  5.93684843  5.00753832
   5.79730788  0.55141942  5.00753832
   5.79730788  5.93684843  5.00753832
   0.56069718  2.14129492  2.64750943
   0.56069718  7.52672329  2.64750943
   5.79730788  2.14129492  2.64750943
   5.79730788  7.52672329  2.64750943
   2.05760820  3.24413377  6.47503295
   2.05760820  8.62956278  6.47503295
   7.29421882  3.24413377  6.47503295
   7.29421882  8.62956278  6.47503295
   2.05760820  4.83400927  1.18001422
   2.05760820 10.21943764  1.18001422
   7.29421882  4.83400927  1.18001422
   7.29421882 10.21943764  1.18001422
   4.67591398  4.83400927  2.64750943
   4.67591398 10.21943764  2.64750943
   9.91252491  4.83400927  2.64750943
   9.91252491 10.21943764  2.64750943
   4.67591398  3.24413377  5.00753832
   4.67591398  8.62956278  5.00753832
   9.91252491  3.24413377  5.00753832
   9.91252491  8.62956278  5.00753832
   3.17900242  2.14129492  1.18001422
   3.17900242  7.52672329  1.18001422
   8.41561335  2.14129492  1.18001422
   8.41561335  7.52672329  1.18001422
   3.17900242  0.55141942  6.47503295
   3.17900242  5.93684843  6.47503295
   8.41561335  0.55141942  6.47503295
   8.41561335  5.93684843  6.47503295
   0.26281528  1.34635717  0.00000000
   0.26281528  6.73178586  0.00000000
   5.49942648  1.34635717  0.00000000
   5.49942648  6.73178586  0.00000000
   2.35549023  4.03907152  3.82752376
   2.35549023  9.42450021  3.82752376
   7.59210147  4.03907152  3.82752376
   7.59210147  9.42450021  3.82752376
   4.97379538  4.03907152  0.00000000
   4.97379538  9.42450021  0.00000000
  10.21040631  4.03907152  0.00000000
  10.21040631  9.42450021  0.00000000
   2.88112102  1.34635717  3.82752376
   2.88112102  6.73178586  3.82752376
   8.11773195  1.34635717  3.82752376
   8.11773195  6.73178586  3.82752376



--------------------------------------------------------------------------------------------------------


 k-point   1 :   0.1250 0.1250 0.1250  plane waves:   15706
 k-point   2 :   0.3750 0.1250 0.1250  plane waves:   15703
 k-point   3 :   0.1250 0.3750 0.1250  plane waves:   15666
 k-point   4 :   0.3750 0.3750 0.1250  plane waves:   15701
 k-point   5 :   0.1250 0.1250 0.3750  plane waves:   15690
 k-point   6 :   0.3750 0.1250 0.3750  plane waves:   15682
 k-point   7 :   0.1250 0.3750 0.3750  plane waves:   15672
 k-point   8 :   0.3750 0.3750 0.3750  plane waves:   15681

 maximum and minimum number of plane-waves per node :     15706    15666

 maximum number of plane-waves:     15706
 maximum index in each direction: 
   IXMAX=   16   IYMAX=   17   IZMAX=   12
   IXMIN=  -17   IYMIN=  -17   IZMIN=  -12


 serial   3D FFT for wavefunctions
 parallel 3D FFT for charge:
    minimum data exchange during FFTs selected (reduces bandwidth)


 total amount of memory used by VASP MPI-rank0   617400. kBytes
=======================================================================

   base      :      30000. kBytes
   nonlr-proj:       9196. kBytes
   fftplans  :      32556. kBytes
   grid      :      57900. kBytes
   one-center:        245. kBytes
   wavefun   :     487503. kBytes

     INWAV:  cpu time      0.0002: real time      0.0004
 Broyden mixing: mesh for mixing (old mesh)
   NGX = 35   NGY = 35   NGZ = 25
  (NGX  =108   NGY  =108   NGZ  = 80)
  gives a total of  30625 points

 initial charge density was supplied:
 charge density of overlapping atoms calculated
 number of electron     384.0000000 magnetization 
 keeping initial charge density in first step


--------------------------------------------------------------------------------------------------------


 Maximum index for non-local projection operator         1453
 Maximum index for augmentation-charges         5101 (set IRDMAX)


--------------------------------------------------------------------------------------------------------


 First call to EWALD:  gamma=   0.186
 Maximum number of real-space cells 3x 2x 3
 Maximum number of reciprocal cells 3x 3x 2

    FEWALD:  cpu time      0.0854: real time      0.0857


--------------------------------------- Iteration      1(   1)  ---------------------------------------


    POTLOK:  cpu time      0.4835: real time      0.4862
    SETDIJ:  cpu time      0.0932: real time      0.0936
     EDDAV:  cpu time     64.7732: real time     65.6148
       DOS:  cpu time      0.0025: real time      0.0027
    --------------------------------------------
      LOOP:  cpu time     65.3524: real time     66.1974

 eigenvalue-minimisations  :  3728
 total energy-change (2. order) : 0.1865186E+04  (-0.1682942E+05)
 number of electron     384.0000000 magnetization 
 augmentation part      384.0000000 magnetization 

 Free energy of the ion-electron system (eV)
  ---------------------------------------------------
  alpha Z        PSCENC =       478.39613516
  Ewald energy   TEWEN  =    -17876.73613528
  -Hartree energ DENC   =     -5615.01411278
  -exchange      EXHF   =         0.00000000
  -V(xc)+E(xc)   XCENC  =       489.03991036
  PAW double counting   =     18752.77991877   -17816.57094691
  entropy T*S    EENTRO =         0.00017824
  eigenvalues    EBANDS =       991.43687462
  atomic energy  EATOM  =     22461.85434800
  Solvation  Ediel_sol  =         0.00000000
  ---------------------------------------------------
  free energy    TOTEN  =      1865.18617019 eV

  energy without entropy =     1865.18599194  energy(sigma->0) =     1865.18611077


--------------------------------------------------------------------------------------------------------




--------------------------------------- Iteration      1(   2)  ---------------------------------------


     EDDAV:  cpu time     75.8102: real time     76.5133
       DOS:  cpu time      0.0025: real time      0.0027
    --------------------------------------------
      LOOP:  cpu time     75.8127: real time     76.5160

 eigenvalue-minimisations  :  4553
 total energy-change (2. order) :-0.2333851E+04  (-0.2274318E+04)
 number of electron     384.0000000 magnetization 
 augmentation part      384.0000000 magnetization 

 Free energy of the ion-electron system (eV)
  ---------------------------------------------------
  alpha Z        PSCENC =       478.39613516
  Ewald energy   TEWEN  =    -17876.73613528
  -Hartree energ DENC   =     -5615.01411278
  -exchange      EXHF   =         0.00000000
  -V(xc)+E(xc)   XCENC  =       489.03991036
  PAW double counting   =     18752.77991877   -17816.57094691
  entropy T*S    EENTRO =         0.00029816
  eigenvalues    EBANDS =     -1342.41387431
  atomic energy  EATOM  =     22461.85434800
  Solvation  Ediel_sol  =         0.00000000
  ---------------------------------------------------
  free energy    TOTEN  =      -468.66445882 eV

  energy without entropy =     -468.66475699  energy(sigma->0) =     -468.66455821


--------------------------------------------------------------------------------------------------------




--------------------------------------- Iteration      1(   3)  ---------------------------------------


     EDDAV:  cpu time     72.5696: real time     73.2576
       DOS:  cpu time      0.0027: real time      0.0030
    --------------------------------------------
      LOOP:  cpu time     72.5723: real time     73.2606

 eigenvalue-minimisations  :  4304
 total energy-change (2. order) :-0.1610014E+03  (-0.1597308E+03)
 number of electron     384.0000000 magnetization 
 augmentation part      384.0000000 magnetization 

 Free energy of the ion-electron system (eV)
  ---------------------------------------------------
  alpha Z        PSCENC =       478.39613516
  Ewald energy   TEWEN  =    -17876.73613528
  -Hartree energ DENC   =     -5615.01411278
  -exchange      EXHF   =         0.00000000
  -V(xc)+E(xc)   XCENC  =       489.03991036
  PAW double counting   =     18752.77991877   -17816.57094691
  entropy T*S    EENTRO =         0.00390013
  eigenvalues    EBANDS =     -1503.41882646
  atomic energy  EATOM  =     22461.85434800
  Solvation  Ediel_sol  =         0.00000000
  ---------------------------------------------------
  free energy    TOTEN  =      -629.66580901 eV

  energy without entropy =     -629.66970914  energy(sigma->0) =     -629.66710905


--------------------------------------------------------------------------------------------------------




--------------------------------------- Iteration      1(   4)  ---------------------------------------


     EDDAV:  cpu time     72.7273: real time     73.4338
       DOS:  cpu time      0.0028: real time      0.0058
    --------------------------------------------
      LOOP:  cpu time     72.7301: real time     73.4396

 eigenvalue-minimisations  :  4312
 total energy-change (2. order) :-0.2628486E+01  (-0.2611388E+01)
 number of electron     384.0000000 magnetization 
 augmentation part      384.0000000 magnetization 

 Free energy of the ion-electron system (eV)
  ---------------------------------------------------
  alpha Z        PSCENC =       478.39613516
  Ewald energy   TEWEN  =    -17876.73613528
  -Hartree energ DENC   =     -5615.01411278
  -exchange      EXHF   =         0.00000000
  -V(xc)+E(xc)   XCENC  =       489.03991036
  PAW double counting   =     18752.77991877   -17816.57094691
  entropy T*S    EENTRO =         0.00382319
  eigenvalues    EBANDS =     -1506.04723570
  atomic energy  EATOM  =     22461.85434800
  Solvation  Ediel_sol  =         0.00000000
  ---------------------------------------------------
  free energy    TOTEN  =      -632.29429518 eV

  energy without entropy =     -632.29811837  energy(sigma->0) =     -632.29556957


--------------------------------------------------------------------------------------------------------




--------------------------------------- Iteration      1(   5)  ---------------------------------------


     EDDAV:  cpu time     71.8486: real time     72.5472
       DOS:  cpu time      0.0026: real time      0.0028
    CHARGE:  cpu time      2.6578: real time      2.6820
    MIXING:  cpu time      0.0145: real time      0.0146
    --------------------------------------------
      LOOP:  cpu time     74.5235: real time     75.2466

 eigenvalue-minimisations  :  4272
 total energy-change (2. order) :-0.6408786E-01  (-0.6394229E-01)
 number of electron     383.9998584 magnetization 
 augmentation part       35.9567874 magnetization 

 Broyden mixing:
  rms(total) = 0.45983E+01    rms(broyden)= 0.45962E+01
  rms(prec ) = 0.60818E+01
  weight for this iteration     100.00

 Free energy of the ion-electron system (eV)
  ---------------------------------------------------
  alpha Z        PSCENC =       478.39613516
  Ewald energy   TEWEN  =    -17876.73613528
  -Hartree energ DENC   =     -5615.01411278
  -exchange      EXHF   =         0.00000000
  -V(xc)+E(xc)   XCENC  =       489.03991036
  PAW double counting   =     18752.77991877   -17816.57094691
  entropy T*S    EENTRO =         0.00378582
  eigenvalues    EBANDS =     -1506.11128618
  atomic energy  EATOM  =     22461.85434800
  Solvation  Ediel_sol  =         0.00000000
  ---------------------------------------------------
  free energy    TOTEN  =      -632.35838304 eV

  energy without entropy =     -632.36216885  energy(sigma->0) =     -632.35964498


--------------------------------------------------------------------------------------------------------




--------------------------------------- Iteration      1(   6)  ---------------------------------------


    POTLOK:  cpu time      0.4843: real time      0.4886
    SETDIJ:  cpu time      0.0814: real time      0.0819
     EDDAV:  cpu time     68.9444: real time     69.6156
       DOS:  cpu time      0.0026: real time      0.0028
    CHARGE:  cpu time      2.5932: real time      2.6182
    MIXING:  cpu time      0.0173: real time      0.0175
    --------------------------------------------
      LOOP:  cpu time     72.1231: real time     72.8245

 eigenvalue-minimisations  :  4072
 total energy-change (2. order) : 0.6221193E+02  (-0.3280765E+02)
 number of electron     383.9998849 magnetization 
 augmentation part       28.9952558 magnetization 

 Broyden mixing:
  rms(total) = 0.17471E+01    rms(broyden)= 0.17435E+01
  rms(prec ) = 0.19304E+01
  weight for this iteration     100.00

 eigenvalues of (default mixing * dielectric matrix)
  average eigenvalue GAMMA=   0.8297
  0.8297

 Free energy of the ion-electron system (eV)
  ---------------------------------------------------
  alpha Z        PSCENC =       478.39613516
  Ewald energy   TEWEN  =    -17876.73613528
  -Hartree energ DENC   =     -6407.35195717
  -exchange      EXHF   =         0.00000000
  -V(xc)+E(xc)   XCENC  =       542.47581625
  PAW double counting   =     22732.17900132   -21807.91555427
  entropy T*S    EENTRO =         0.00377836
  eigenvalues    EBANDS =      -693.05188289
  atomic energy  EATOM  =     22461.85434800
  Solvation  Ediel_sol  =         0.00000000
  ---------------------------------------------------
  free energy    TOTEN  =      -570.14645051 eV

  energy without entropy =     -570.15022887  energy(sigma->0) =     -570.14770996


--------------------------------------------------------------------------------------------------------




--------------------------------------- Iteration      1(   7)  ---------------------------------------


    POTLOK:  cpu time      0.4910: real time      0.4952
    SETDIJ:  cpu time      0.0916: real time      0.0922
     EDDAV:  cpu time     70.0839: real time     70.7824
       DOS:  cpu time      0.0025: real time      0.0028
    CHARGE:  cpu time      2.6039: real time      2.6280
    MIXING:  cpu time      0.0180: real time      0.0182
    --------------------------------------------
      LOOP:  cpu time     73.2910: real time     74.0187

 eigenvalue-minimisations  :  4152
 total energy-change (2. order) : 0.5894648E+00  (-0.6448521E+00)
 number of electron     383.9998834 magnetization 
 augmentation part       29.3178420 magnetization 

 Broyden mixing:
  rms(total) = 0.94439E+00    rms(broyden)= 0.94436E+00
  rms(prec ) = 0.10755E+01
  weight for this iteration     100.00

 eigenvalues of (default mixing * dielectric matrix)
  average eigenvalue GAMMA=   1.2781
  1.0091  1.5470

 Free energy of the ion-electron system (eV)
  ---------------------------------------------------
  alpha Z        PSCENC =       478.39613516
  Ewald energy   TEWEN  =    -17876.73613528
  -Hartree energ DENC   =     -6384.06247627
  -exchange      EXHF   =         0.00000000
  -V(xc)+E(xc)   XCENC  =       541.32895612
  PAW double counting   =     24681.38913194   -23754.11302098
  entropy T*S    EENTRO =         0.00476953
  eigenvalues    EBANDS =      -717.61869392
  atomic energy  EATOM  =     22461.85434800
  Solvation  Ediel_sol  =         0.00000000
  ---------------------------------------------------
  free energy    TOTEN  =      -569.55698568 eV

  energy without entropy =     -569.56175521  energy(sigma->0) =     -569.55857552


--------------------------------------------------------------------------------------------------------




--------------------------------------- Iteration      1(   8)  ---------------------------------------


    POTLOK:  cpu time      0.4960: real time      0.5000
    SETDIJ:  cpu time      0.0811: real time      0.0815
     EDDAV:  cpu time     70.0794: real time     70.7604
       DOS:  cpu time      0.0024: real time      0.0026
    CHARGE:  cpu time      2.5980: real time      2.6225
    MIXING:  cpu time      0.0198: real time      0.0199
    --------------------------------------------
      LOOP:  cpu time     73.2766: real time     73.9870

 eigenvalue-minimisations  :  4160
 total energy-change (2. order) : 0.3194395E+00  (-0.9723715E-01)
 number of electron     383.9998831 magnetization 
 augmentation part       29.3906398 magnetization 

 Broyden mixing:
  rms(total) = 0.25663E+00    rms(broyden)= 0.25661E+00
  rms(prec ) = 0.30167E+00
  weight for this iteration     100.00

 eigenvalues of (default mixing * dielectric matrix)
  average eigenvalue GAMMA=   1.5167
  2.4881  1.0310  1.0310

 Free energy of the ion-electron system (eV)
  ---------------------------------------------------
  alpha Z        PSCENC =       478.39613516
  Ewald energy   TEWEN  =    -17876.73613528
  -Hartree energ DENC   =     -6404.07620209
  -exchange      EXHF   =         0.00000000
  -V(xc)+E(xc)   XCENC  =       543.63590056
  PAW double counting   =     26482.27476427   -25553.08421347
  entropy T*S    EENTRO =         0.00506215
  eigenvalues    EBANDS =      -701.50720552
  atomic energy  EATOM  =     22461.85434800
  Solvation  Ediel_sol  =         0.00000000
  ---------------------------------------------------
  free energy    TOTEN  =      -569.23754620 eV

  energy without entropy =     -569.24260835  energy(sigma->0) =     -569.23923358


--------------------------------------------------------------------------------------------------------




--------------------------------------- Iteration      1(   9)  ---------------------------------------


    POTLOK:  cpu time      0.4994: real time      0.5036
    SETDIJ:  cpu time      0.0818: real time      0.0826
     EDDAV:  cpu time     72.1010: real time     72.8431
       DOS:  cpu time      0.0025: real time      0.0027
    CHARGE:  cpu time      2.6083: real time      2.6337
    MIXING:  cpu time      0.0202: real time      0.0203
    --------------------------------------------
      LOOP:  cpu time     75.3131: real time     76.0862

 eigenvalue-minimisations  :  4312
 total energy-change (2. order) :-0.3728168E-01  (-0.1601042E-01)
 number of electron     383.9998833 magnetization 
 augmentation part       29.3263232 magnetization 

 Broyden mixing:
  rms(total) = 0.75827E-01    rms(broyden)= 0.75822E-01
  rms(prec ) = 0.78639E-01
  weight for this iteration     100.00

 eigenvalues of (default mixing * dielectric matrix)
  average eigenvalue GAMMA=   1.6982
  0.9653  0.9653  2.6187  2.2434

 Free energy of the ion-electron system (eV)
  ---------------------------------------------------
  alpha Z        PSCENC =       478.39613516
  Ewald energy   TEWEN  =    -17876.73613528
  -Hartree energ DENC   =     -6427.18009880
  -exchange      EXHF   =         0.00000000
  -V(xc)+E(xc)   XCENC  =       545.78288434
  PAW double counting   =     26977.79529220   -26048.14951060
  entropy T*S    EENTRO =         0.00510056
  eigenvalues    EBANDS =      -681.04284347
  atomic energy  EATOM  =     22461.85434800
  Solvation  Ediel_sol  =         0.00000000
  ---------------------------------------------------
  free energy    TOTEN  =      -569.27482789 eV

  energy without entropy =     -569.27992845  energy(sigma->0) =     -569.27652807


--------------------------------------------------------------------------------------------------------




--------------------------------------- Iteration      1(  10)  ---------------------------------------


    POTLOK:  cpu time      0.5011: real time      0.5054
    SETDIJ:  cpu time      0.0818: real time      0.0823
     EDDAV:  cpu time     73.1450: real time     73.8573
       DOS:  cpu time      0.0026: real time      0.0028
    CHARGE:  cpu time      2.6149: real time      2.6405
    MIXING:  cpu time      0.0208: real time      0.0209
    --------------------------------------------
      LOOP:  cpu time     76.3661: real time     77.1092

 eigenvalue-minimisations  :  4392
 total energy-change (2. order) :-0.7803325E-02  (-0.1194857E-02)
 number of electron     383.9998834 magnetization 
 augmentation part       29.3056992 magnetization 

 Broyden mixing:
  rms(total) = 0.20804E-01    rms(broyden)= 0.20798E-01
  rms(prec ) = 0.23469E-01
  weight for this iteration     100.00

 eigenvalues of (default mixing * dielectric matrix)
  average eigenvalue GAMMA=   1.6059
  2.7938  2.3654  0.9823  0.9823  0.9057

 Free energy of the ion-electron system (eV)
  ---------------------------------------------------
  alpha Z        PSCENC =       478.39613516
  Ewald energy   TEWEN  =    -17876.73613528
  -Hartree energ DENC   =     -6430.15942729
  -exchange      EXHF   =         0.00000000
  -V(xc)+E(xc)   XCENC  =       546.07364699
  PAW double counting   =     26681.67818592   -25752.15041534
  entropy T*S    EENTRO =         0.00508928
  eigenvalues    EBANDS =      -678.24405865
  atomic energy  EATOM  =     22461.85434800
  Solvation  Ediel_sol  =         0.00000000
  ---------------------------------------------------
  free energy    TOTEN  =      -569.28263121 eV

  energy without entropy =     -569.28772049  energy(sigma->0) =     -569.28432764


--------------------------------------------------------------------------------------------------------




--------------------------------------- Iteration      1(  11)  ---------------------------------------


    POTLOK:  cpu time      0.5013: real time      0.5056
    SETDIJ:  cpu time      0.0816: real time      0.0821
     EDDAV:  cpu time     71.4199: real time     72.1048
       DOS:  cpu time      0.0026: real time      0.0028
    CHARGE:  cpu time      2.6303: real time      2.6543
    MIXING:  cpu time      0.0213: real time      0.0215
    --------------------------------------------
      LOOP:  cpu time     74.6570: real time     75.3711

 eigenvalue-minimisations  :  4272
 total energy-change (2. order) : 0.6304045E-04  (-0.2170794E-03)
 number of electron     383.9998833 magnetization 
 augmentation part       29.3214585 magnetization 

 Broyden mixing:
  rms(total) = 0.72349E-02    rms(broyden)= 0.72301E-02
  rms(prec ) = 0.77835E-02
  weight for this iteration     100.00

 eigenvalues of (default mixing * dielectric matrix)
  average eigenvalue GAMMA=   1.5757
  2.8310  2.3720  0.9691  0.9691  1.1564  1.1564

 Free energy of the ion-electron system (eV)
  ---------------------------------------------------
  alpha Z        PSCENC =       478.39613516
  Ewald energy   TEWEN  =    -17876.73613528
  -Hartree energ DENC   =     -6428.80663556
  -exchange      EXHF   =         0.00000000
  -V(xc)+E(xc)   XCENC  =       545.99411401
  PAW double counting   =     26623.96746444   -25694.41272810
  entropy T*S    EENTRO =         0.00509899
  eigenvalues    EBANDS =      -679.54422984
  atomic energy  EATOM  =     22461.85434800
  Solvation  Ediel_sol  =         0.00000000
  ---------------------------------------------------
  free energy    TOTEN  =      -569.28256817 eV

  energy without entropy =     -569.28766715  energy(sigma->0) =     -569.28426783


--------------------------------------------------------------------------------------------------------




--------------------------------------- Iteration      1(  12)  ---------------------------------------


    POTLOK:  cpu time      0.4993: real time      0.5038
    SETDIJ:  cpu time      0.0814: real time      0.0818
     EDDAV:  cpu time     70.9057: real time     71.5911
       DOS:  cpu time      0.0025: real time      0.0027
    CHARGE:  cpu time      2.6342: real time      2.6582
    MIXING:  cpu time      0.0231: real time      0.0233
    --------------------------------------------
      LOOP:  cpu time     74.1463: real time     74.8610

 eigenvalue-minimisations  :  4232
 total energy-change (2. order) :-0.3832009E-04  (-0.5354070E-04)
 number of electron     383.9998833 magnetization 
 augmentation part       29.3229387 magnetization 

 Broyden mixing:
  rms(total) = 0.44268E-02    rms(broyden)= 0.44231E-02
  rms(prec ) = 0.49370E-02
  weight for this iteration     100.00

 eigenvalues of (default mixing * dielectric matrix)
  average eigenvalue GAMMA=   1.4909
  2.8776  2.3991  1.4885  0.9892  0.9892  0.8462  0.8462

 Free energy of the ion-electron system (eV)
  ---------------------------------------------------
  alpha Z        PSCENC =       478.39613516
  Ewald energy   TEWEN  =    -17876.73613528
  -Hartree energ DENC   =     -6428.79841696
  -exchange      EXHF   =         0.00000000
  -V(xc)+E(xc)   XCENC  =       545.99189487
  PAW double counting   =     26607.29463117   -25677.74021624
  entropy T*S    EENTRO =         0.00510157
  eigenvalues    EBANDS =      -679.54994879
  atomic energy  EATOM  =     22461.85434800
  Solvation  Ediel_sol  =         0.00000000
  ---------------------------------------------------
  free energy    TOTEN  =      -569.28260649 eV

  energy without entropy =     -569.28770806  energy(sigma->0) =     -569.28430701


--------------------------------------------------------------------------------------------------------




--------------------------------------- Iteration      1(  13)  ---------------------------------------


    POTLOK:  cpu time      0.4951: real time      0.4995
    SETDIJ:  cpu time      0.0816: real time      0.0821
     EDDAV:  cpu time     77.2350: real time     77.9885
       DOS:  cpu time      0.0023: real time      0.0025
    CHARGE:  cpu time      2.6384: real time      2.6621
    MIXING:  cpu time      0.0241: real time      0.0242
    --------------------------------------------
      LOOP:  cpu time     80.4764: real time     81.2591

 eigenvalue-minimisations  :  4712
 total energy-change (2. order) : 0.8113151E-05  (-0.7905016E-05)
 number of electron     383.9998833 magnetization 
 augmentation part       29.3250647 magnetization 

 Broyden mixing:
  rms(total) = 0.22828E-02    rms(broyden)= 0.22818E-02
  rms(prec ) = 0.25063E-02
  weight for this iteration     100.00

 eigenvalues of (default mixing * dielectric matrix)
  average eigenvalue GAMMA=   1.5537
  2.9036  2.3725  2.3725  1.0184  1.0184  0.9315  0.9063  0.9063

 Free energy of the ion-electron system (eV)
  ---------------------------------------------------
  alpha Z        PSCENC =       478.39613516
  Ewald energy   TEWEN  =    -17876.73613528
  -Hartree energ DENC   =     -6428.60776737
  -exchange      EXHF   =         0.00000000
  -V(xc)+E(xc)   XCENC  =       545.97798548
  PAW double counting   =     26600.20830556   -25670.64705516
  entropy T*S    EENTRO =         0.00510071
  eigenvalues    EBANDS =      -679.73351548
  atomic energy  EATOM  =     22461.85434800
  Solvation  Ediel_sol  =         0.00000000
  ---------------------------------------------------
  free energy    TOTEN  =      -569.28259838 eV

  energy without entropy =     -569.28769909  energy(sigma->0) =     -569.28429861


--------------------------------------------------------------------------------------------------------




--------------------------------------- Iteration      1(  14)  ---------------------------------------


    POTLOK:  cpu time      0.4927: real time      0.4969
    SETDIJ:  cpu time      0.0817: real time      0.0823
     EDDAV:  cpu time     70.1096: real time     70.7887
       DOS:  cpu time      0.0023: real time      0.0025
    CHARGE:  cpu time      2.6385: real time      2.6627
    MIXING:  cpu time      0.0271: real time      0.0273
    --------------------------------------------
      LOOP:  cpu time     73.3519: real time     74.0603

 eigenvalue-minimisations  :  4176
 total energy-change (2. order) : 0.5026926E-05  (-0.4335849E-05)
 number of electron     383.9998833 magnetization 
 augmentation part       29.3232867 magnetization 

 Broyden mixing:
  rms(total) = 0.41362E-03    rms(broyden)= 0.41102E-03
  rms(prec ) = 0.48139E-03
  weight for this iteration     100.00

 eigenvalues of (default mixing * dielectric matrix)
  average eigenvalue GAMMA=   1.5421
  2.9918  2.6143  2.3403  1.2201  1.0016  1.0016  0.9128  0.8982  0.8982

 Free energy of the ion-electron system (eV)
  ---------------------------------------------------
  alpha Z        PSCENC =       478.39613516
  Ewald energy   TEWEN  =    -17876.73613528
  -Hartree energ DENC   =     -6428.80640910
  -exchange      EXHF   =         0.00000000
  -V(xc)+E(xc)   XCENC  =       545.98895506
  PAW double counting   =     26595.63639690   -25666.07602232
  entropy T*S    EENTRO =         0.00509963
  eigenvalues    EBANDS =      -679.54496140
  atomic energy  EATOM  =     22461.85434800
  Solvation  Ediel_sol  =         0.00000000
  ---------------------------------------------------
  free energy    TOTEN  =      -569.28259335 eV

  energy without entropy =     -569.28769298  energy(sigma->0) =     -569.28429323


--------------------------------------------------------------------------------------------------------




--------------------------------------- Iteration      1(  15)  ---------------------------------------


    POTLOK:  cpu time      0.5006: real time      0.5046
    SETDIJ:  cpu time      0.0826: real time      0.0831
     EDDAV:  cpu time     45.7235: real time     46.1806
       DOS:  cpu time      0.0028: real time      0.0030
    --------------------------------------------
      LOOP:  cpu time     46.3094: real time     46.7713

 eigenvalue-minimisations  :  2328
 total energy-change (2. order) :-0.5116090E-07  (-0.1674332E-06)
 number of electron     383.9998833 magnetization 
 augmentation part       29.3232867 magnetization 

 Free energy of the ion-electron system (eV)
  ---------------------------------------------------
  alpha Z        PSCENC =       478.39613516
  Ewald energy   TEWEN  =    -17876.73613528
  -Hartree energ DENC   =     -6428.77729866
  -exchange      EXHF   =         0.00000000
  -V(xc)+E(xc)   XCENC  =       545.98651748
  PAW double counting   =     26594.35600576   -25664.79452885
  entropy T*S    EENTRO =         0.00509982
  eigenvalues    EBANDS =      -679.57273685
  atomic energy  EATOM  =     22461.85434800
  Solvation  Ediel_sol  =         0.00000000
  ---------------------------------------------------
  free energy    TOTEN  =      -569.28259340 eV

  energy without entropy =     -569.28769322  energy(sigma->0) =     -569.28429334


--------------------------------------------------------------------------------------------------------




 average (electrostatic) potential at core
  the test charge radii are     1.0406  0.7215
  (the norm of the test charge is              1.0000)
       1 -74.9832       2 -74.9833       3 -74.9832       4 -74.9832       5 -74.9833
       6 -74.9833       7 -74.9832       8 -74.9833       9 -74.9832      10 -74.9833
      11 -74.9833      12 -74.9833      13 -74.9833      14 -74.9833      15 -74.9833
      16 -74.9833      17 -74.9833      18 -74.9833      19 -74.9832      20 -74.9833
      21 -74.9832      22 -74.9833      23 -74.9832      24 -74.9832      25 -74.9833
      26 -74.9833      27 -74.9832      28 -74.9833      29 -74.9832      30 -74.9833
      31 -74.9832      32 -74.9832      33 -69.3580      34 -69.3580      35 -69.3580
      36 -69.3580      37 -69.3580      38 -69.3580      39 -69.3580      40 -69.3580
      41 -69.3580      42 -69.3580      43 -69.3580      44 -69.3580      45 -69.3580
      46 -69.3580      47 -69.3580      48 -69.3580      49 -69.3580      50 -69.3580
      51 -69.3580      52 -69.3580      53 -69.3580      54 -69.3580      55 -69.3580
      56 -69.3580      57 -69.3580      58 -69.3580      59 -69.3580      60 -69.3580
      61 -69.3580      62 -69.3580      63 -69.3580      64 -69.3580      65 -69.3095
      66 -69.3096      67 -69.3096      68 -69.3096      69 -69.3095      70 -69.3096
      71 -69.3095      72 -69.3096      73 -69.3096      74 -69.3096      75 -69.3096
      76 -69.3096      77 -69.3095      78 -69.3096      79 -69.3095      80 -69.3096



 E-fermi :   3.9073     XC(G=0): -10.6359     alpha+bet :-13.2585

 Fermi energy:         3.9073178892

 k-point     1 :       0.1250    0.1250    0.1250
  band No.  band energies     occupation 
      1     -13.6576      2.00000
      2     -13.2517      2.00000
      3     -13.2420      2.00000
      4     -13.0166      2.00000
      5     -13.0150      2.00000
      6     -13.0033      2.00000
      7     -12.8963      2.00000
      8     -12.7081      2.00000
      9     -12.7071      2.00000
     10     -12.6672      2.00000
     11     -12.6599      2.00000
     12     -12.5656      2.00000
     13     -12.5202      2.00000
     14     -12.4828      2.00000
     15     -12.3736      2.00000
     16     -12.3495      2.00000
     17     -12.3358      2.00000
     18     -12.2914      2.00000
     19     -12.2553      2.00000
     20     -12.2403      2.00000
     21     -12.1918      2.00000
     22     -12.1886      2.00000
     23     -12.1767      2.00000
     24     -12.1386      2.00000
     25     -12.1327      2.00000
     26     -12.1279      2.00000
     27     -12.1019      2.00000
     28     -12.0728      2.00000
     29     -12.0582      2.00000
     30     -12.0296      2.00000
     31     -12.0019      2.00000
     32     -11.9719      2.00000
     33     -11.9177      2.00000
     34     -11.8909      2.00000
     35     -11.8897      2.00000
     36     -11.8833      2.00000
     37     -11.8764      2.00000
     38     -11.8577      2.00000
     39     -11.8564      2.00000
     40     -11.8553      2.00000
     41     -11.8153      2.00000
     42     -11.8137      2.00000
     43     -11.8020      2.00000
     44     -11.7853      2.00000
     45     -11.7555      2.00000
     46     -11.7235      2.00000
     47     -11.6856      2.00000
     48     -11.6689      2.00000
     49      -1.3217      2.00000
     50      -1.2945      2.00000
     51      -1.1759      2.00000
     52      -1.1740      2.00000
     53      -1.1480      2.00000
     54      -1.1195      2.00000
     55      -1.0764      2.00000
     56      -0.9967      2.00000
     57      -0.9692      2.00000
     58      -0.9663      2.00000
     59      -0.9543      2.00000
     60      -0.9429      2.00000
     61      -0.9117      2.00000
     62      -0.8298      2.00000
     63      -0.8253      2.00000
     64      -0.7470      2.00000
     65      -0.6641      2.00000
     66      -0.5474      2.00000
     67      -0.5270      2.00000
     68      -0.3258      2.00000
     69      -0.2521      2.00000
     70      -0.2358      2.00000
     71      -0.1725      2.00000
     72      -0.1693      2.00000
     73      -0.1642      2.00000
     74      -0.0913      2.00000
     75      -0.0483      2.00000
     76      -0.0282      2.00000
     77       0.0909      2.00000
     78       0.1465      2.00000
     79       0.1821      2.00000
     80       0.3166      2.00000
     81       0.3493      2.00000
     82       0.3715      2.00000
     83       0.4689      2.00000
     84       0.4910      2.00000
     85       0.4947      2.00000
     86       0.5496      2.00000
     87       0.5561      2.00000
     88       0.5704      2.00000
     89       0.5732      2.00000
     90       0.6219      2.00000
     91       0.6390      2.00000
     92       0.6599      2.00000
     93       0.6660      2.00000
     94       0.7488      2.00000
     95       0.7591      2.00000
     96       0.9148      2.00000
     97       0.9239      2.00000
     98       0.9687      2.00000
     99       1.0327      2.00000
    100       1.0987      2.00000
    101       1.1735      2.00000
    102       1.2273      2.00000
    103       1.2872      2.00000
    104       1.3451      2.00000
    105       1.3696      2.00000
    106       1.4640      2.00000
    107       1.4829      2.00000
    108       1.4951      2.00000
    109       1.5306      2.00000
    110       1.6753      2.00000
    111       1.6803      2.00000
    112       1.7560      2.00000
    113       1.7726      2.00000
    114       1.7812      2.00000
    115       1.8701      2.00000
    116       1.8790      2.00000
    117       1.8960      2.00000
    118       1.9085      2.00000
    119       1.9694      2.00000
    120       2.0088      2.00000
    121       2.0267      2.00000
    122       2.0379      2.00000
    123       2.0487      2.00000
    124       2.1585      2.00000
    125       2.1674      2.00000
    126       2.1855      2.00000
    127       2.2737      2.00000
    128       2.3039      2.00000
    129       2.3381      2.00000
    130       2.3521      2.00000
    131       2.4635      2.00000
    132       2.5070      2.00000
    133       2.5117      2.00000
    134       2.5188      2.00000
    135       2.5500      2.00000
    136       2.6328      2.00000
    137       2.6439      2.00000
    138       2.6462      2.00000
    139       2.6891      2.00000
    140       2.6977      2.00000
    141       2.7258      2.00000
    142       2.7976      2.00000
    143       2.8239      2.00000
    144       2.8502      2.00000
    145       2.8518      2.00000
    146       2.8643      2.00000
    147       2.8847      2.00000
    148       2.9179      2.00000
    149       2.9611      2.00000
    150       2.9663      2.00000
    151       2.9665      2.00000
    152       3.0005      2.00000
    153       3.0069      2.00000
    154       3.0390      2.00000
    155       3.0505      2.00000
    156       3.0572      2.00000
    157       3.1106      2.00000
    158       3.1607      2.00000
    159       3.1804      2.00000
    160       3.2104      2.00000
    161       3.2173      2.00000
    162       3.2403      2.00000
    163       3.2426      2.00000
    164       3.2707      2.00000
    165       3.3123      2.00000
    166       3.3463      2.00000
    167       3.3573      2.00000
    168       3.3949      2.00000
    169       3.4311      2.00000
    170       3.4571      2.00000
    171       3.4677      2.00000
    172       3.4924      2.00000
    173       3.5020      2.00000
    174       3.5035      2.00000
    175       3.5449      2.00000
    176       3.5815      2.00000
    177       3.6043      2.00000
    178       3.6288      2.00000
    179       3.6602      2.00000
    180       3.6700      2.00000
    181       3.7273      2.00000
    182       3.7616      2.00000
    183       3.7633      2.00000
    184       3.7777      2.00000
    185       3.7826      2.00000
    186       3.8095      2.00000
    187       3.8417      2.00209
    188       3.8528      2.01152
    189       3.8626      2.03543
    190       3.8665      2.04893
    191       3.8827      2.03703
    192       3.8901      1.89228
    193       7.0981      0.00000
    194       9.0463      0.00000
    195       9.0913      0.00000
    196       9.7933      0.00000
    197       9.7983      0.00000
    198       9.9622      0.00000
    199      10.0920      0.00000
    200      10.2809      0.00000
    201      10.4057      0.00000
    202      10.4437      0.00000
    203      10.5726      0.00000
    204      10.5891      0.00000
    205      10.6408      0.00000
    206      10.7423      0.00000
    207      10.7831      0.00000
    208      10.8270      0.00000
    209      10.9389      0.00000
    210      10.9543      0.00000
    211      10.9681      0.00000
    212      11.0084      0.00000
    213      11.1071      0.00000
    214      11.1292      0.00000
    215      11.1530      0.00000
    216      11.1892      0.00000
    217      11.2575      0.00000
    218      11.3846      0.00000
[...]
     0.000000000 10.770857380  0.000000000     0.000000000  0.092843120  0.000000000
     0.000000000  0.000000000  7.655047515     0.000000000  0.000000000  0.130632762

  length of vectors
    10.473221861 10.770857380  7.655047515     0.095481602  0.092843120  0.130632762


 FORCES acting on ions
    electron-ion (+dipol)            ewald-force                    non-local-force                 convergence-correction
 -----------------------------------------------------------------------------------------------
   0.278E+01 -.241E+01 0.140E+02   -.277E+01 0.593E+00 -.133E+02   -.150E-01 0.145E+01 -.439E+00   0.284E-04 -.451E-05 0.108E-03
   0.278E+01 -.241E+01 0.140E+02   -.277E+01 0.593E+00 -.133E+02   -.150E-01 0.145E+01 -.439E+00   0.284E-04 -.793E-06 0.107E-03
   0.278E+01 -.241E+01 0.140E+02   -.277E+01 0.593E+00 -.133E+02   -.150E-01 0.145E+01 -.439E+00   0.265E-04 -.451E-05 0.108E-03
   0.278E+01 -.241E+01 0.140E+02   -.277E+01 0.593E+00 -.133E+02   -.150E-01 0.145E+01 -.439E+00   0.265E-04 -.790E-06 0.107E-03
   0.278E+01 0.241E+01 -.140E+02   -.277E+01 -.593E+00 0.133E+02   -.150E-01 -.145E+01 0.439E+00   0.284E-04 0.269E-05 -.107E-03
   0.278E+01 0.241E+01 -.140E+02   -.277E+01 -.593E+00 0.133E+02   -.150E-01 -.145E+01 0.439E+00   0.284E-04 0.262E-05 -.107E-03
   0.278E+01 0.241E+01 -.140E+02   -.277E+01 -.593E+00 0.133E+02   -.150E-01 -.145E+01 0.439E+00   0.265E-04 0.269E-05 -.107E-03
   0.278E+01 0.241E+01 -.140E+02   -.277E+01 -.593E+00 0.133E+02   -.150E-01 -.145E+01 0.439E+00   0.265E-04 0.262E-05 -.107E-03
   -.278E+01 -.241E+01 -.140E+02   0.277E+01 0.593E+00 0.133E+02   0.150E-01 0.145E+01 0.439E+00   -.265E-04 -.205E-05 -.108E-03
   -.278E+01 -.241E+01 -.140E+02   0.277E+01 0.593E+00 0.133E+02   0.150E-01 0.145E+01 0.439E+00   -.265E-04 -.320E-05 -.108E-03
   -.278E+01 -.241E+01 -.140E+02   0.277E+01 0.593E+00 0.133E+02   0.150E-01 0.145E+01 0.439E+00   -.285E-04 -.205E-05 -.108E-03
   -.278E+01 -.241E+01 -.140E+02   0.277E+01 0.593E+00 0.133E+02   0.150E-01 0.145E+01 0.439E+00   -.285E-04 -.320E-05 -.108E-03
   -.278E+01 0.241E+01 0.140E+02   0.277E+01 -.593E+00 -.133E+02   0.150E-01 -.145E+01 -.439E+00   -.265E-04 0.454E-05 0.107E-03
   -.278E+01 0.241E+01 0.140E+02   0.277E+01 -.593E+00 -.133E+02   0.150E-01 -.145E+01 -.439E+00   -.265E-04 0.715E-06 0.107E-03
   -.278E+01 0.241E+01 0.140E+02   0.277E+01 -.593E+00 -.133E+02   0.150E-01 -.145E+01 -.439E+00   -.285E-04 0.454E-05 0.107E-03
   -.278E+01 0.241E+01 0.140E+02   0.277E+01 -.593E+00 -.133E+02   0.150E-01 -.145E+01 -.439E+00   -.285E-04 0.717E-06 0.107E-03
   -.278E+01 0.241E+01 -.140E+02   0.277E+01 -.593E+00 0.133E+02   0.150E-01 -.145E+01 0.439E+00   -.274E-04 0.454E-05 -.107E-03
   -.278E+01 0.241E+01 -.140E+02   0.277E+01 -.593E+00 0.133E+02   0.150E-01 -.145E+01 0.439E+00   -.274E-04 0.720E-06 -.107E-03
   -.278E+01 0.241E+01 -.140E+02   0.277E+01 -.593E+00 0.133E+02   0.150E-01 -.145E+01 0.439E+00   -.275E-04 0.454E-05 -.107E-03
   -.278E+01 0.241E+01 -.140E+02   0.277E+01 -.593E+00 0.133E+02   0.150E-01 -.145E+01 0.439E+00   -.275E-04 0.719E-06 -.107E-03
   -.278E+01 -.241E+01 0.140E+02   0.277E+01 0.593E+00 -.133E+02   0.150E-01 0.145E+01 -.439E+00   -.274E-04 -.205E-05 0.107E-03
   -.278E+01 -.241E+01 0.140E+02   0.277E+01 0.593E+00 -.133E+02   0.150E-01 0.145E+01 -.439E+00   -.274E-04 -.321E-05 0.107E-03
   -.278E+01 -.241E+01 0.140E+02   0.277E+01 0.593E+00 -.133E+02   0.150E-01 0.145E+01 -.439E+00   -.275E-04 -.205E-05 0.108E-03
   -.278E+01 -.241E+01 0.140E+02   0.277E+01 0.593E+00 -.133E+02   0.150E-01 0.145E+01 -.439E+00   -.275E-04 -.321E-05 0.108E-03
   0.278E+01 0.241E+01 0.140E+02   -.277E+01 -.593E+00 -.133E+02   -.150E-01 -.145E+01 -.439E+00   0.276E-04 0.269E-05 0.107E-03
   0.278E+01 0.241E+01 0.140E+02   -.277E+01 -.593E+00 -.133E+02   -.150E-01 -.145E+01 -.439E+00   0.276E-04 0.262E-05 0.107E-03
   0.278E+01 0.241E+01 0.140E+02   -.277E+01 -.593E+00 -.133E+02   -.150E-01 -.145E+01 -.439E+00   0.274E-04 0.268E-05 0.107E-03
   0.278E+01 0.241E+01 0.140E+02   -.277E+01 -.593E+00 -.133E+02   -.150E-01 -.145E+01 -.439E+00   0.274E-04 0.262E-05 0.107E-03
   0.278E+01 -.241E+01 -.140E+02   -.277E+01 0.593E+00 0.133E+02   -.150E-01 0.145E+01 0.439E+00   0.276E-04 -.451E-05 -.108E-03
   0.278E+01 -.241E+01 -.140E+02   -.277E+01 0.593E+00 0.133E+02   -.150E-01 0.145E+01 0.439E+00   0.276E-04 -.792E-06 -.108E-03
   0.278E+01 -.241E+01 -.140E+02   -.277E+01 0.593E+00 0.133E+02   -.150E-01 0.145E+01 0.439E+00   0.274E-04 -.451E-05 -.108E-03
   0.278E+01 -.241E+01 -.140E+02   -.277E+01 0.593E+00 0.133E+02   -.150E-01 0.145E+01 0.439E+00   0.274E-04 -.786E-06 -.108E-03
   0.581E+01 0.283E+01 -.158E+02   -.459E+01 -.218E+01 0.164E+02   -.133E+01 -.765E+00 -.723E+00   -.102E-03 0.646E-04 -.722E-03
   0.581E+01 0.283E+01 -.158E+02   -.459E+01 -.218E+01 0.164E+02   -.133E+01 -.765E+00 -.723E+00   -.102E-03 0.726E-04 -.723E-03
   0.581E+01 0.283E+01 -.158E+02   -.459E+01 -.218E+01 0.164E+02   -.133E+01 -.765E+00 -.723E+00   -.106E-03 0.646E-04 -.722E-03
   0.581E+01 0.283E+01 -.158E+02   -.459E+01 -.218E+01 0.164E+02   -.133E+01 -.765E+00 -.723E+00   -.106E-03 0.726E-04 -.723E-03
   0.581E+01 -.283E+01 0.158E+02   -.459E+01 0.218E+01 -.164E+02   -.133E+01 0.765E+00 0.723E+00   -.102E-03 -.690E-04 0.724E-03
   0.581E+01 -.283E+01 0.158E+02   -.459E+01 0.218E+01 -.164E+02   -.133E+01 0.765E+00 0.723E+00   -.102E-03 -.682E-04 0.724E-03
   0.581E+01 -.283E+01 0.158E+02   -.459E+01 0.218E+01 -.164E+02   -.133E+01 0.765E+00 0.723E+00   -.106E-03 -.690E-04 0.724E-03
   0.581E+01 -.283E+01 0.158E+02   -.459E+01 0.218E+01 -.164E+02   -.133E+01 0.765E+00 0.723E+00   -.106E-03 -.682E-04 0.724E-03
   -.581E+01 0.283E+01 0.158E+02   0.459E+01 -.218E+01 -.164E+02   0.133E+01 -.765E+00 0.723E+00   0.106E-03 0.704E-04 0.724E-03
   -.581E+01 0.283E+01 0.158E+02   0.459E+01 -.218E+01 -.164E+02   0.133E+01 -.765E+00 0.723E+00   0.106E-03 0.670E-04 0.724E-03
   -.581E+01 0.283E+01 0.158E+02   0.459E+01 -.218E+01 -.164E+02   0.133E+01 -.765E+00 0.723E+00   0.101E-03 0.704E-04 0.724E-03
   -.581E+01 0.283E+01 0.158E+02   0.459E+01 -.218E+01 -.164E+02   0.133E+01 -.765E+00 0.723E+00   0.101E-03 0.669E-04 0.724E-03
   -.581E+01 -.283E+01 -.158E+02   0.459E+01 0.218E+01 0.164E+02   0.133E+01 0.765E+00 -.723E+00   0.106E-03 -.642E-04 -.725E-03
   -.581E+01 -.283E+01 -.158E+02   0.459E+01 0.218E+01 0.164E+02   0.133E+01 0.765E+00 -.723E+00   0.106E-03 -.732E-04 -.725E-03
   -.581E+01 -.283E+01 -.158E+02   0.459E+01 0.218E+01 0.164E+02   0.133E+01 0.765E+00 -.723E+00   0.101E-03 -.641E-04 -.725E-03
   -.581E+01 -.283E+01 -.158E+02   0.459E+01 0.218E+01 0.164E+02   0.133E+01 0.765E+00 -.723E+00   0.101E-03 -.731E-04 -.726E-03
   -.581E+01 -.283E+01 0.158E+02   0.459E+01 0.218E+01 -.164E+02   0.133E+01 0.765E+00 0.723E+00   0.103E-03 -.642E-04 0.723E-03
   -.581E+01 -.283E+01 0.158E+02   0.459E+01 0.218E+01 -.164E+02   0.133E+01 0.765E+00 0.723E+00   0.103E-03 -.732E-04 0.724E-03
   -.581E+01 -.283E+01 0.158E+02   0.459E+01 0.218E+01 -.164E+02   0.133E+01 0.765E+00 0.723E+00   0.105E-03 -.642E-04 0.724E-03
   -.581E+01 -.283E+01 0.158E+02   0.459E+01 0.218E+01 -.164E+02   0.133E+01 0.765E+00 0.723E+00   0.105E-03 -.732E-04 0.724E-03
   -.581E+01 0.283E+01 -.158E+02   0.459E+01 -.218E+01 0.164E+02   0.133E+01 -.765E+00 -.723E+00   0.103E-03 0.704E-04 -.722E-03
   -.581E+01 0.283E+01 -.158E+02   0.459E+01 -.218E+01 0.164E+02   0.133E+01 -.765E+00 -.723E+00   0.103E-03 0.669E-04 -.722E-03
   -.581E+01 0.283E+01 -.158E+02   0.459E+01 -.218E+01 0.164E+02   0.133E+01 -.765E+00 -.723E+00   0.105E-03 0.704E-04 -.723E-03
   -.581E+01 0.283E+01 -.158E+02   0.459E+01 -.218E+01 0.164E+02   0.133E+01 -.765E+00 -.723E+00   0.105E-03 0.670E-04 -.723E-03
   0.581E+01 -.283E+01 -.158E+02   -.459E+01 0.218E+01 0.164E+02   -.133E+01 0.765E+00 -.723E+00   -.102E-03 -.690E-04 -.725E-03
   0.581E+01 -.283E+01 -.158E+02   -.459E+01 0.218E+01 0.164E+02   -.133E+01 0.765E+00 -.723E+00   -.103E-03 -.682E-04 -.725E-03
   0.581E+01 -.283E+01 -.158E+02   -.459E+01 0.218E+01 0.164E+02   -.133E+01 0.765E+00 -.723E+00   -.105E-03 -.690E-04 -.725E-03
   0.581E+01 -.283E+01 -.158E+02   -.459E+01 0.218E+01 0.164E+02   -.133E+01 0.765E+00 -.723E+00   -.105E-03 -.682E-04 -.725E-03
   0.581E+01 0.283E+01 0.158E+02   -.459E+01 -.218E+01 -.164E+02   -.133E+01 -.765E+00 0.723E+00   -.103E-03 0.646E-04 0.723E-03
   0.581E+01 0.283E+01 0.158E+02   -.459E+01 -.218E+01 -.164E+02   -.133E+01 -.765E+00 0.723E+00   -.103E-03 0.726E-04 0.724E-03
   0.581E+01 0.283E+01 0.158E+02   -.459E+01 -.218E+01 -.164E+02   -.133E+01 -.765E+00 0.723E+00   -.105E-03 0.646E-04 0.723E-03
   0.581E+01 0.283E+01 0.158E+02   -.459E+01 -.218E+01 -.164E+02   -.133E+01 -.765E+00 0.723E+00   -.105E-03 0.726E-04 0.724E-03
   -.171E+02 -.535E-04 -.663E-04   0.176E+02 0.975E-05 0.333E-04   -.737E+00 0.473E-19 -.101E-18   -.266E-03 -.259E-05 -.164E-05
   -.171E+02 -.517E-04 -.632E-04   0.176E+02 -.349E-05 0.397E-05   -.737E+00 0.196E-18 -.123E-18   -.266E-03 0.258E-05 -.789E-06
   -.171E+02 -.535E-04 -.663E-04   0.176E+02 0.975E-05 0.333E-04   -.737E+00 0.119E-18 -.111E-18   -.270E-03 -.259E-05 -.164E-05
   -.171E+02 -.517E-04 -.632E-04   0.176E+02 -.349E-05 0.397E-05   -.737E+00 0.236E-18 0.709E-19   -.270E-03 0.258E-05 -.789E-06
   0.171E+02 -.531E-04 -.182E-04   -.176E+02 -.118E-05 -.154E-04   0.737E+00 0.196E-18 -.135E-18   0.270E-03 0.357E-05 0.851E-06
   0.171E+02 -.542E-04 -.150E-04   -.176E+02 0.128E-04 -.354E-04   0.737E+00 0.127E-18 -.731E-21   0.270E-03 -.358E-05 0.161E-05
   0.171E+02 -.531E-04 -.182E-04   -.176E+02 -.118E-05 -.154E-04   0.737E+00 0.200E-18 -.135E-18   0.266E-03 0.357E-05 0.851E-06
   0.171E+02 -.542E-04 -.150E-04   -.176E+02 0.128E-04 -.354E-04   0.737E+00 0.929E-19 -.270E-18   0.266E-03 -.358E-05 0.161E-05
   0.171E+02 -.525E-04 -.253E-04   -.176E+02 -.325E-05 0.974E-05   0.737E+00 0.211E-19 0.190E-18   0.267E-03 0.357E-05 -.834E-06
   0.171E+02 -.537E-04 -.285E-04   -.176E+02 0.108E-04 0.296E-04   0.737E+00 0.214E-18 -.149E-19   0.267E-03 -.358E-05 -.160E-05
   0.171E+02 -.525E-04 -.253E-04   -.176E+02 -.325E-05 0.974E-05   0.737E+00 0.303E-18 -.257E-19   0.269E-03 0.357E-05 -.834E-06
   0.171E+02 -.537E-04 -.285E-04   -.176E+02 0.108E-04 0.296E-04   0.737E+00 0.227E-18 -.146E-19   0.269E-03 -.358E-05 -.160E-05
   -.171E+02 -.554E-04 -.529E-04   0.176E+02 0.118E-04 -.390E-04   -.737E+00 0.229E-18 0.273E-18   -.267E-03 -.259E-05 0.166E-05
   -.171E+02 -.536E-04 -.560E-04   0.176E+02 -.143E-05 -.968E-05   -.737E+00 0.116E-19 0.207E-18   -.267E-03 0.258E-05 0.806E-06
   -.171E+02 -.554E-04 -.529E-04   0.176E+02 0.118E-04 -.390E-04   -.737E+00 0.257E-18 0.168E-18   -.269E-03 -.259E-05 0.166E-05
   -.171E+02 -.536E-04 -.560E-04   0.176E+02 -.143E-05 -.968E-05   -.737E+00 -.227E-19 0.311E-18   -.269E-03 0.258E-05 0.806E-06
 -----------------------------------------------------------------------------------------------
   0.562E-02 -.275E-02 -.861E-03   0.711E-14 0.520E-13 -.130E-13   0.000E+00 -.244E-14 -.444E-15   0.130E-06 -.867E-08 0.114E-07


 POSITION                                       TOTAL-FORCE (eV/Angst)
 -----------------------------------------------------------------------------------
      1.32120      0.16907      2.98538        -0.003152     -0.370186      0.272339
      1.32120      5.55450      2.98538        -0.003152     -0.370186      0.272339
      6.55781      0.16907      2.98538        -0.003152     -0.370186      0.272339
      6.55781      5.55450      2.98538        -0.003152     -0.370186      0.272339
      1.32120      2.52364      4.66967        -0.003152      0.370186     -0.272339
      1.32120      7.90907      4.66967        -0.003152      0.370186     -0.272339
      6.55781      2.52364      4.66967        -0.003152      0.370186     -0.272339
      6.55781      7.90907      4.66967        -0.003152      0.370186     -0.272339
      1.29710      2.86179      0.84214         0.003152     -0.370186     -0.272339
      1.29710      8.24722      0.84214         0.003152     -0.370186     -0.272339
      6.53371      2.86179      0.84214         0.003152     -0.370186     -0.272339
      6.53371      8.24722      0.84214         0.003152     -0.370186     -0.272339
      1.29710      5.21636      6.81290         0.003152      0.370186      0.272339
      1.29710     10.60178      6.81290         0.003152      0.370186      0.272339
      6.53371      5.21636      6.81290         0.003152      0.370186      0.272339
      6.53371     10.60178      6.81290         0.003152      0.370186      0.272339
      3.91541      5.21636      4.66967         0.003152      0.370186     -0.272339
      3.91541     10.60178      4.66967         0.003152      0.370186     -0.272339
      9.15202      5.21636      4.66967         0.003152      0.370186     -0.272339
      9.15202     10.60178      4.66967         0.003152      0.370186     -0.272339
      3.91541      2.86179      2.98538         0.003152     -0.370186      0.272339
      3.91541      8.24722      2.98538         0.003152     -0.370186      0.272339
      9.15202      2.86179      2.98538         0.003152     -0.370186      0.272339
      9.15202      8.24722      2.98538         0.003152     -0.370186      0.272339
      3.93951      2.52364      6.81290        -0.003152      0.370186      0.272339
      3.93951      7.90907      6.81290        -0.003152      0.370186      0.272339
      9.17612      2.52364      6.81290        -0.003152      0.370186      0.272339
      9.17612      7.90907      6.81290        -0.003152      0.370186      0.272339
      3.93951      0.16907      0.84214        -0.003152     -0.370186     -0.272339
      3.93951      5.55450      0.84214        -0.003152     -0.370186     -0.272339
      9.17612      0.16907      0.84214        -0.003152     -0.370186     -0.272339
      9.17612      5.55450      0.84214        -0.003152     -0.370186     -0.272339
      0.56070      0.55142      5.00754        -0.113738     -0.116725     -0.171098
      0.56070      5.93685      5.00754        -0.113738     -0.116725     -0.171098
      5.79731      0.55142      5.00754        -0.113738     -0.116725     -0.171098
      5.79731      5.93685      5.00754        -0.113738     -0.116725     -0.171098
      0.56070      2.14129      2.64751        -0.113738      0.116725      0.171098
      0.56070      7.52672      2.64751        -0.113738      0.116725      0.171098
      5.79731      2.14129      2.64751        -0.113738      0.116725      0.171098
      5.79731      7.52672      2.64751        -0.113738      0.116725      0.171098
      2.05761      3.24413      6.47503         0.113738     -0.116725      0.171098
      2.05761      8.62956      6.47503         0.113738     -0.116725      0.171098
      7.29422      3.24413      6.47503         0.113738     -0.116725      0.171098
      7.29422      8.62956      6.47503         0.113738     -0.116725      0.171098
      2.05761      4.83401      1.18001         0.113738      0.116725     -0.171098
      2.05761     10.21944      1.18001         0.113738      0.116725     -0.171098
      7.29422      4.83401      1.18001         0.113738      0.116725     -0.171098
      7.29422     10.21944      1.18001         0.113738      0.116725     -0.171098
      4.67591      4.83401      2.64751         0.113738      0.116725      0.171098
      4.67591     10.21944      2.64751         0.113738      0.116725      0.171098
      9.91252      4.83401      2.64751         0.113738      0.116725      0.171098
      9.91252     10.21944      2.64751         0.113738      0.116725      0.171098
      4.67591      3.24413      5.00754         0.113738     -0.116725     -0.171098
      4.67591      8.62956      5.00754         0.113738     -0.116725     -0.171098
      9.91252      3.24413      5.00754         0.113738     -0.116725     -0.171098
      9.91252      8.62956      5.00754         0.113738     -0.116725     -0.171098
      3.17900      2.14129      1.18001        -0.113738      0.116725     -0.171098
      3.17900      7.52672      1.18001        -0.113738      0.116725     -0.171098
      8.41561      2.14129      1.18001        -0.113738      0.116725     -0.171098
      8.41561      7.52672      1.18001        -0.113738      0.116725     -0.171098
      3.17900      0.55142      6.47503        -0.113738     -0.116725      0.171098
      3.17900      5.93685      6.47503        -0.113738     -0.116725      0.171098
      8.41561      0.55142      6.47503        -0.113738     -0.116725      0.171098
      8.41561      5.93685      6.47503        -0.113738     -0.116725      0.171098
      0.26282      1.34636      0.00000        -0.214075     -0.000000     -0.000000
      0.26282      6.73179      0.00000        -0.214075     -0.000000     -0.000000
      5.49943      1.34636      0.00000        -0.214075     -0.000000     -0.000000
      5.49943      6.73179      0.00000        -0.214075     -0.000000     -0.000000
      2.35549      4.03907      3.82752         0.214075     -0.000000     -0.000000
      2.35549      9.42450      3.82752         0.214075     -0.000000     -0.000000
      7.59210      4.03907      3.82752         0.214075     -0.000000     -0.000000
      7.59210      9.42450      3.82752         0.214075     -0.000000     -0.000000
      4.97380      4.03907      0.00000         0.214075     -0.000000     -0.000000
      4.97380      9.42450      0.00000         0.214075     -0.000000     -0.000000
     10.21041      4.03907      0.00000         0.214075     -0.000000     -0.000000
     10.21041      9.42450      0.00000         0.214075     -0.000000     -0.000000
      2.88112      1.34636      3.82752        -0.214075     -0.000000     -0.000000
      2.88112      6.73179      3.82752        -0.214075     -0.000000     -0.000000
      8.11773      1.34636      3.82752        -0.214075     -0.000000     -0.000000
      8.11773      6.73179      3.82752        -0.214075     -0.000000     -0.000000
 -----------------------------------------------------------------------------------
    total drift:                                0.005621     -0.002749     -0.000861


--------------------------------------------------------------------------------------------------------



  FREE ENERGIE OF THE ION-ELECTRON SYSTEM (eV)
  ---------------------------------------------------
  free  energy   TOTEN  =      -569.28259340 eV

  energy  without entropy=     -569.28769322  energy(sigma->0) =     -569.28429334



--------------------------------------------------------------------------------------------------------


    POTLOK:  cpu time      0.5069: real time      0.5339


--------------------------------------------------------------------------------------------------------


 writing wavefunctions
     LOOP+:  cpu time   1157.2452: real time   1168.7314
    4ORBIT:  cpu time      0.0000: real time      0.0000

 total amount of memory used by VASP MPI-rank0   617400. kBytes
=======================================================================

   base      :      30000. kBytes
   nonlr-proj:       9196. kBytes
   fftplans  :      32556. kBytes
   grid      :      57900. kBytes
   one-center:        245. kBytes
   wavefun   :     487503. kBytes

  
  
 General timing and accounting informations for this job:
 ========================================================
  
                  Total CPU time used (sec):     1169.588
                            User time (sec):     1166.613
                          System time (sec):        2.976
                         Elapsed time (sec):     1226.583
  
                   Maximum memory used (kb):      815724.
                   Average memory used (kb):          N/A
  
                          Minor page faults:       450418
                          Major page faults:            4
                 Voluntary context switches:          728
