 vasp.6.3.0 20Jan22 (build Jul  1 2024 12:21:46) complex                         
 executed on             LinuxGNU date 2024.10.21  12:37:23
 running    1 mpi-ranks, with    1 threads/rank
 distrk:  each k-point on    1 cores,    1 groups
 distr:  one band on NCORE=   1 cores,    1 groups


--------------------------------------------------------------------------------------------------------


 INCAR:
   SYSTEM = Alumina_orthorombic_cell_under_strain
   ISTART = 0
   ICHARG = 2
   ENCUT = 400
   ALGO = Normal
   PREC = Normal
   ISPIN = 1
   LWAVE = T             (Write WAVECAR)
   LCHARG = T             (Write CHGCAR)
   NPAR = 1
   EDIFF = 1E-6
   NSW = 0
   NELM = 100
   POTIM = 0.5
   IBRION = -1
   ISMEAR = 1
   SIGMA = 0.026
   EDIFFG = -0.001
   ISIF = 2
   LREAL = Auto

 POTCAR:    PAW_PBE Al 04Jan2001                  
 POTCAR:    PAW_PBE O 08Apr2002                   
 POTCAR:    PAW_PBE Al 04Jan2001                  
   SHA256 =  17880443556af62b473fe41b62a467bd001ad55d2cabe504a3f22e34d4e9db96 Al/POTCAR             
   COPYR  = (c) Copyright 04Jan2001 Georg Kresse                                                    
   COPYR  = This file is part of the software VASP. Any use, copying, and all other rights are regul
   COPYR  = If you do not have a valid VASP license, you may not use, copy or distribute this file. 
   VRHFIN =Al: s2p1                                                                                 
   LEXCH  = PE                                                                                      
   EATOM  =    53.5387 eV,    3.9350 Ry                                                             
                                                                                                    
   TITEL  = PAW_PBE Al 04Jan2001                                                                    
   LULTRA =        F    use ultrasoft PP ?                                                          
   IUNSCR =        1    unscreen: 0-lin 1-nonlin 2-no                                               
   RPACOR =    1.500    partial core radius                                                         
   POMASS =   26.981; ZVAL   =    3.000    mass and valenz                                          
   RCORE  =    1.900    outmost cutoff radius                                                       
   RWIGS  =    2.650; RWIGS  =    1.402    wigner-seitz radius (au A)                               
   ENMAX  =  240.300; ENMIN  =  180.225 eV                                                          
   ICORE  =        2    local potential                                                             
   LCOR   =        T    correct aug charges                                                         
   LPAW   =        T    paw PP                                                                      
   EAUG   =  291.052                                                                                
   DEXC   =    0.000                                                                                
   RMAX   =    1.939    core radius for proj-oper                                                   
   RAUG   =    1.300    factor for augmentation sphere                                              
   RDEP   =    1.966    radius for radial grids                                                     
   RDEPT  =    1.856    core radius for aug-charge                                                  
                                                                                                    
   Atomic configuration                                                                             
    6 entries                                                                                       
     n  l   j            E        occ.                                                              
     1  0  0.50     -1511.1048   2.0000                                                             
     2  0  0.50      -108.1629   2.0000                                                             
     2  1  1.50       -69.6402   6.0000                                                             
     3  0  0.50        -7.7528   2.0000                                                             
     3  1  1.50        -2.7121   1.0000                                                             
     3  2  2.50        -2.7212   0.0000                                                             
   Description                                                                                      
     l       E           TYP  RCUT    TYP  RCUT                                                     
     0     -7.7528455     23  1.900                                                                 
     0     -3.3096929     23  1.900                                                                 
     1     -2.7120682     23  1.900                                                                 
     1     13.6058260     23  1.900                                                                 
     2     -2.7211652      7  1.900                                                                 
  local pseudopotential read in
  partial core-charges read in
  partial kinetic energy density read in
  atomic valenz-charges read in
  non local Contribution for L=           0  read in
    real space projection operators read in
  non local Contribution for L=           0  read in
    real space projection operators read in
  non local Contribution for L=           1  read in
    real space projection operators read in
  non local Contribution for L=           1  read in
    real space projection operators read in
    PAW grid and wavefunctions read in

   number of l-projection  operators is LMAX  =           4
   number of lm-projection operators is LMMAX =           8

 POTCAR:    PAW_PBE O 08Apr2002                   
   SHA256 =  818f92134a0a090dccd8ba1447fa70422a3b330e708bb4f08108d8ae51209ddf O/POTCAR              
   COPYR  = (c) Copyright 08Apr2002 Georg Kresse                                                    
   COPYR  = This file is part of the software VASP. Any use, copying, and all other rights are regul
   COPYR  = If you do not have a valid VASP license, you may not use, copy or distribute this file. 
   VRHFIN =O: s2p4                                                                                  
   LEXCH  = PE                                                                                      
   EATOM  =   432.3788 eV,   31.7789 Ry                                                             
                                                                                                    
   TITEL  = PAW_PBE O 08Apr2002                                                                     
   LULTRA =        F    use ultrasoft PP ?                                                          
   IUNSCR =        1    unscreen: 0-lin 1-nonlin 2-no                                               
   RPACOR =    1.200    partial core radius                                                         
   POMASS =   16.000; ZVAL   =    6.000    mass and valenz                                          
   RCORE  =    1.520    outmost cutoff radius                                                       
   RWIGS  =    1.550; RWIGS  =    0.820    wigner-seitz radius (au A)                               
   ENMAX  =  400.000; ENMIN  =  300.000 eV                                                          
   ICORE  =        2    local potential                                                             
   LCOR   =        T    correct aug charges                                                         
   LPAW   =        T    paw PP                                                                      
   EAUG   =  605.392                                                                                
   DEXC   =    0.000                                                                                
   RMAX   =    1.553    core radius for proj-oper                                                   
   RAUG   =    1.300    factor for augmentation sphere                                              
   RDEP   =    1.550    radius for radial grids                                                     
   RDEPT  =    1.329    core radius for aug-charge                                                  
                                                                                                    
   Atomic configuration                                                                             
    4 entries                                                                                       
     n  l   j            E        occ.                                                              
     1  0  0.50      -514.6923   2.0000                                                             
     2  0  0.50       -23.9615   2.0000                                                             
     2  1  0.50        -9.0305   4.0000                                                             
     3  2  1.50        -9.5241   0.0000                                                             
   Description                                                                                      
     l       E           TYP  RCUT    TYP  RCUT                                                     
     0    -23.9615318     23  1.200                                                                 
     0     -9.5240782     23  1.200                                                                 
     1     -9.0304911     23  1.520                                                                 
     1      8.1634956     23  1.520                                                                 
     2     -9.5240782      7  1.500                                                                 
  local pseudopotential read in
  partial core-charges read in
  partial kinetic energy density read in
  kinetic energy density of atom read in
  atomic valenz-charges read in
  non local Contribution for L=           0  read in
    real space projection operators read in
  non local Contribution for L=           0  read in
    real space projection operators read in
  non local Contribution for L=           1  read in
    real space projection operators read in
  non local Contribution for L=           1  read in
    real space projection operators read in
    PAW grid and wavefunctions read in

   number of l-projection  operators is LMAX  =           4
   number of lm-projection operators is LMMAX =           8

 Optimization of the real space projectors (new method)

 maximal supplied QI-value         = 19.84
 optimisation between [QCUT,QGAM] = [ 10.12, 20.44] = [ 28.68,116.96] Ry 
 Optimized for a Real-space Cutoff    1.23 Angstroem

   l    n(q)    QCUT    max X(q) W(low)/X(q) W(high)/X(q)  e(spline) 
   0      7    10.119   176.870    0.49E-04    0.18E-03    0.39E-07
   0      7    10.119   105.762    0.46E-04    0.18E-03    0.38E-07
   1      7    10.119    55.370    0.30E-03    0.37E-03    0.12E-06
   1      7    10.119    20.208    0.27E-03    0.35E-03    0.11E-06
 Optimization of the real space projectors (new method)

 maximal supplied QI-value         = 24.76
 optimisation between [QCUT,QGAM] = [ 10.15, 20.30] = [ 28.85,115.39] Ry 
 Optimized for a Real-space Cutoff    1.38 Angstroem

   l    n(q)    QCUT    max X(q) W(low)/X(q) W(high)/X(q)  e(spline) 
   0      8    10.150    20.381    0.22E-03    0.32E-03    0.29E-06
   0      8    10.150    15.268    0.23E-03    0.35E-03    0.30E-06
   1      8    10.150     5.964    0.46E-03    0.53E-03    0.21E-06
   1      8    10.150     5.382    0.38E-03    0.45E-03    0.19E-06
  PAW_PBE Al 04Jan2001                  :
 energy of atom  1       EATOM=  -53.5387
 kinetic energy error for atom=    0.0005 (will be added to EATOM!!)
  PAW_PBE O 08Apr2002                   :
 energy of atom  2       EATOM= -432.3788
 kinetic energy error for atom=    0.1156 (will be added to EATOM!!)


 POSCAR:    Al  O
  positions in direct lattice
  No initial velocities read in
 exchange correlation table for  LEXCH =        8
   RHO(1)=    0.500       N(1)  =     2000
   RHO(2)=  100.500       N(2)  =     4000



--------------------------------------------------------------------------------------------------------


 ion  position               nearest neighbor table
   1  0.126  0.016  0.390-  70 1.67  52 1.69  46 1.72  77 1.76  37 1.77  33 1.81   5 2.39  18 2.57
                            20 2.60  31 2.79  29 2.79  10 2.84   9 2.84   6 2.86  22 3.09  21 3.09
   2  0.126  0.516  0.390-  69 1.67  51 1.69  45 1.72  78 1.76  38 1.77  34 1.81   6 2.39  17 2.57
                            19 2.60  32 2.79  30 2.79   9 2.84  10 2.84   5 2.86  21 3.09  22 3.09
   3  0.626  0.016  0.390-  72 1.67  50 1.69  48 1.72  79 1.76  39 1.77  35 1.81   7 2.39  20 2.57
                            18 2.60  29 2.79  31 2.79  12 2.84  11 2.84   8 2.86  24 3.09  23 3.09
   4  0.626  0.516  0.390-  71 1.67  49 1.69  47 1.72  80 1.76  40 1.77  36 1.81   8 2.39  19 2.57
                            17 2.60  30 2.79  32 2.79  11 2.84  12 2.84   7 2.86  23 3.09  24 3.09
   5  0.126  0.234  0.610-  69 1.67  55 1.69  41 1.72  77 1.76  33 1.77  37 1.81   1 2.39  21 2.57
                            23 2.60  27 2.79  25 2.79  13 2.84  14 2.84   2 2.86  17 3.09  18 3.09
   6  0.126  0.734  0.610-  70 1.67  56 1.69  42 1.72  78 1.76  34 1.77  38 1.81   2 2.39  22 2.57
                            24 2.60  28 2.79  26 2.79  14 2.84  13 2.84   1 2.86  18 3.09  17 3.09
   7  0.626  0.234  0.610-  71 1.67  53 1.69  43 1.72  79 1.76  35 1.77  39 1.81   3 2.39  23 2.57
                            21 2.60  25 2.79  27 2.79  15 2.84  16 2.84   4 2.86  19 3.09  20 3.09
   8  0.626  0.734  0.610-  72 1.67  54 1.69  44 1.72  80 1.76  36 1.77  40 1.81   4 2.39  24 2.57
                            22 2.60  26 2.79  28 2.79  16 2.84  15 2.84   3 2.86  20 3.09  19 3.09
   9  0.124  0.266  0.110-  65 1.67  57 1.69  37 1.72  75 1.76  45 1.77  41 1.81  13 2.39  27 2.57
                            25 2.60  21 2.79  23 2.79   2 2.84   1 2.84  14 2.86  32 3.09  31 3.09
  10  0.124  0.766  0.110-  66 1.67  58 1.69  38 1.72  76 1.76  46 1.77  42 1.81  14 2.39  28 2.57
                            26 2.60  22 2.79  24 2.79   1 2.84   2 2.84  13 2.86  31 3.09  32 3.09
  11  0.624  0.266  0.110-  67 1.67  59 1.69  39 1.72  73 1.76  47 1.77  43 1.81  15 2.39  25 2.57
                            27 2.60  23 2.79  21 2.79   4 2.84   3 2.84  16 2.86  30 3.09  29 3.09
  12  0.624  0.766  0.110-  68 1.67  60 1.69  40 1.72  74 1.76  48 1.77  44 1.81  16 2.39  26 2.57
                            28 2.60  24 2.79  22 2.79   3 2.84   4 2.84  15 2.86  29 3.09  30 3.09
  13  0.124  0.484  0.890-  66 1.67  62 1.69  34 1.72  75 1.76  41 1.77  45 1.81   9 2.39  32 2.57
                            30 2.60  17 2.79  19 2.79   5 2.84   6 2.84  10 2.86  27 3.09  28 3.09
  14  0.124  0.984  0.890-  65 1.67  61 1.69  33 1.72  76 1.76  42 1.77  46 1.81  10 2.39  31 2.57
                            29 2.60  18 2.79  20 2.79   6 2.84   5 2.84   9 2.86  28 3.09  27 3.09
  15  0.624  0.484  0.890-  68 1.67  64 1.69  36 1.72  73 1.76  43 1.77  47 1.81  11 2.39  30 2.57
                            32 2.60  19 2.79  17 2.79   7 2.84   8 2.84  12 2.86  25 3.09  26 3.09
  16  0.624  0.984  0.890-  67 1.67  63 1.69  35 1.72  74 1.76  44 1.77  48 1.81  12 2.39  29 2.57
                            31 2.60  20 2.79  18 2.79   8 2.84   7 2.84  11 2.86  26 3.09  25 3.09
  17  0.374  0.484  0.610-  78 1.67  36 1.69  62 1.72  69 1.76  53 1.77  49 1.81  21 2.39   2 2.57
                             4 2.60  13 2.79  15 2.79  25 2.84  26 2.84  22 2.86   5 3.09   6 3.09
  18  0.374  0.984  0.610-  77 1.67  35 1.69  61 1.72  70 1.76  54 1.77  50 1.81  22 2.39   1 2.57
                             3 2.60  14 2.79  16 2.79  26 2.84  25 2.84  21 2.86   6 3.09   5 3.09
  19  0.874  0.484  0.610-  80 1.67  34 1.69  64 1.72  71 1.76  55 1.77  51 1.81  23 2.39   4 2.57
                             2 2.60  15 2.79  13 2.79  27 2.84  28 2.84  24 2.86   7 3.09   8 3.09
  20  0.874  0.984  0.610-  79 1.67  33 1.69  63 1.72  72 1.76  56 1.77  52 1.81  24 2.39   3 2.57
                             1 2.60  16 2.79  14 2.79  28 2.84  27 2.84  23 2.86   8 3.09   7 3.09
  21  0.374  0.266  0.390-  77 1.67  39 1.69  57 1.72  69 1.76  49 1.77  53 1.81  17 2.39   5 2.57
                             7 2.60   9 2.79  11 2.79  30 2.84  29 2.84  18 2.86   2 3.09   1 3.09
  22  0.374  0.766  0.390-  78 1.67  40 1.69  58 1.72  70 1.76  50 1.77  54 1.81  18 2.39   6 2.57
                             8 2.60  10 2.79  12 2.79  29 2.84  30 2.84  17 2.86   1 3.09   2 3.09
  23  0.874  0.266  0.390-  79 1.67  37 1.69  59 1.72  71 1.76  51 1.77  55 1.81  19 2.39   7 2.57
                             5 2.60  11 2.79   9 2.79  32 2.84  31 2.84  20 2.86   4 3.09   3 3.09
  24  0.874  0.766  0.390-  80 1.67  38 1.69  60 1.72  72 1.76  52 1.77  56 1.81  20 2.39   8 2.57
                             6 2.60  12 2.79  10 2.79  31 2.84  32 2.84  19 2.86   3 3.09   4 3.09
  25  0.376  0.234  0.890-  73 1.67  41 1.69  53 1.72  67 1.76  61 1.77  57 1.81  29 2.39  11 2.57
                             9 2.60   7 2.79   5 2.79  17 2.84  18 2.84  30 2.86  15 3.09  16 3.09
  26  0.376  0.734  0.890-  74 1.67  42 1.69  54 1.72  68 1.76  62 1.77  58 1.81  30 2.39  12 2.57
                            10 2.60   8 2.79   6 2.79  18 2.84  17 2.84  29 2.86  16 3.09  15 3.09
  27  0.876  0.234  0.890-  75 1.67  43 1.69  55 1.72  65 1.76  63 1.77  59 1.81  31 2.39   9 2.57
                            11 2.60   5 2.79   7 2.79  19 2.84  20 2.84  32 2.86  13 3.09  14 3.09
  28  0.876  0.734  0.890-  76 1.67  44 1.69  56 1.72  66 1.76  64 1.77  60 1.81  32 2.39  10 2.57
                            12 2.60   6 2.79   8 2.79  20 2.84  19 2.84  31 2.86  14 3.09  13 3.09
  29  0.376  0.016  0.110-  74 1.67  46 1.69  50 1.72  67 1.76  57 1.77  61 1.81  25 2.39  16 2.57
                            14 2.60   3 2.79   1 2.79  22 2.84  21 2.84  26 2.86  12 3.09  11 3.09
  30  0.376  0.516  0.110-  73 1.67  45 1.69  49 1.72  68 1.76  58 1.77  62 1.81  26 2.39  15 2.57
                            13 2.60   4 2.79   2 2.79  22 2.84  21 2.84  25 2.86  11 3.09  12 3.09
  31  0.876  0.016  0.110-  76 1.67  48 1.69  52 1.72  65 1.76  59 1.77  63 1.81  27 2.39  14 2.57
                            16 2.60   1 2.79   3 2.79  24 2.84  23 2.84  28 2.86  10 3.09   9 3.09
  32  0.876  0.516  0.110-  75 1.67  47 1.69  51 1.72  66 1.76  60 1.77  64 1.81  28 2.39  13 2.57
                            15 2.60   2 2.79   4 2.79  24 2.84  23 2.84  27 2.86   9 3.09  10 3.09
  33  0.054  0.051  0.654-  20 1.69  14 1.72   5 1.77   1 1.81
  34  0.054  0.551  0.654-  19 1.69  13 1.72   6 1.77   2 1.81
  35  0.554  0.051  0.654-  18 1.69  16 1.72   7 1.77   3 1.81
  36  0.554  0.551  0.654-  17 1.69  15 1.72   8 1.77   4 1.81
  37  0.054  0.199  0.346-  23 1.69   9 1.72   1 1.77   5 1.81
  38  0.054  0.699  0.346-  24 1.69  10 1.72   2 1.77   6 1.81
  39  0.554  0.199  0.346-  21 1.69  11 1.72   3 1.77   7 1.81
  40  0.554  0.699  0.346-  22 1.69  12 1.72   4 1.77   8 1.81
  41  0.196  0.301  0.846-  25 1.69   5 1.72  13 1.77   9 1.81
  42  0.196  0.801  0.846-  26 1.69   6 1.72  14 1.77  10 1.81
  43  0.696  0.301  0.846-  27 1.69   7 1.72  15 1.77  11 1.81
  44  0.696  0.801  0.846-  28 1.69   8 1.72  16 1.77  12 1.81
  45  0.196  0.449  0.154-  30 1.69   2 1.72   9 1.77  13 1.81
  46  0.196  0.949  0.154-  29 1.69   1 1.72  10 1.77  14 1.81
  47  0.696  0.449  0.154-  32 1.69   4 1.72  11 1.77  15 1.81
  48  0.696  0.949  0.154-  31 1.69   3 1.72  12 1.77  16 1.81
  49  0.446  0.449  0.346-   4 1.69  30 1.72  21 1.77  17 1.81
  50  0.446  0.949  0.346-   3 1.69  29 1.72  22 1.77  18 1.81
  51  0.946  0.449  0.346-   2 1.69  32 1.72  23 1.77  19 1.81
  52  0.946  0.949  0.346-   1 1.69  31 1.72  24 1.77  20 1.81
  53  0.446  0.301  0.654-   7 1.69  25 1.72  17 1.77  21 1.81
  54  0.446  0.801  0.654-   8 1.69  26 1.72  18 1.77  22 1.81
  55  0.946  0.301  0.654-   5 1.69  27 1.72  19 1.77  23 1.81
  56  0.946  0.801  0.654-   6 1.69  28 1.72  20 1.77  24 1.81
  57  0.304  0.199  0.154-   9 1.69  21 1.72  29 1.77  25 1.81
  58  0.304  0.699  0.154-  10 1.69  22 1.72  30 1.77  26 1.81
  59  0.804  0.199  0.154-  11 1.69  23 1.72  31 1.77  27 1.81
  60  0.804  0.699  0.154-  12 1.69  24 1.72  32 1.77  28 1.81
  61  0.304  0.051  0.846-  14 1.69  18 1.72  25 1.77  29 1.81
  62  0.304  0.551  0.846-  13 1.69  17 1.72  26 1.77  30 1.81
  63  0.804  0.051  0.846-  16 1.69  20 1.72  27 1.77  31 1.81
  64  0.804  0.551  0.846-  15 1.69  19 1.72  28 1.77  32 1.81
  65  0.025  0.125  0.000-  14 1.67   9 1.67  27 1.76  31 1.76
  66  0.025  0.625  0.000-  13 1.67  10 1.67  28 1.76  32 1.76
  67  0.525  0.125  0.000-  16 1.67  11 1.67  25 1.76  29 1.76
  68  0.525  0.625  0.000-  15 1.67  12 1.67  26 1.76  30 1.76
  69  0.225  0.375  0.500-   5 1.67   2 1.67  17 1.76  21 1.76
  70  0.225  0.875  0.500-   6 1.67   1 1.67  18 1.76  22 1.76
  71  0.725  0.375  0.500-   7 1.67   4 1.67  19 1.76  23 1.76
  72  0.725  0.875  0.500-   8 1.67   3 1.67  20 1.76  24 1.76
  73  0.475  0.375  0.000-  25 1.67  30 1.67  15 1.76  11 1.76
  74  0.475  0.875  0.000-  29 1.67  26 1.67  16 1.76  12 1.76
  75  0.975  0.375  0.000-  27 1.67  32 1.67  13 1.76   9 1.76
  76  0.975  0.875  0.000-  31 1.67  28 1.67  14 1.76  10 1.76
  77  0.275  0.125  0.500-  18 1.67  21 1.67   5 1.76   1 1.76
  78  0.275  0.625  0.500-  17 1.67  22 1.67   6 1.76   2 1.76
  79  0.775  0.125  0.500-  20 1.67  23 1.67   7 1.76   3 1.76
  80  0.775  0.625  0.500-  19 1.67  24 1.67   8 1.76   4 1.76

  LATTYP: Found a simple orthorhombic cell.
 ALAT       =     6.3206814347
 B/A-ratio  =     1.3681458986
 C/A-ratio  =     1.4070268484
  
  Lattice vectors:
  
 A1 = (   0.0000000000,   0.0000000000,   6.3206814347)
 A2 = (   8.6476143811,   0.0000000000,   0.0000000000)
 A3 = (   0.0000000000,   8.8933684789,   0.0000000000)


Analysis of symmetry for initial positions (statically):
=====================================================================
 Subroutine PRICEL returns following result:
 
  LATTYP: Found a simple orthorhombic cell.
 ALAT       =     4.3238071908
 B/A-ratio  =     1.0284187391
 C/A-ratio  =     1.4618323981
  
  Lattice vectors:
  
 A1 = (   4.3238071908,   0.0000000000,   0.0000000000)
 A2 = (   0.0000000000,   4.4466843391,   0.0000000000)
 A3 = (   0.0000000000,   0.0000000000,   6.3206814347)
 
   4 primitive cells build up your supercell.
 

 Routine SETGRP: Setting up the symmetry group for a 
 simple orthorhombic supercell.


 Subroutine GETGRP returns: Found  8 space group operations
 (whereof  2 operations were pure point group operations)
 out of a pool of  8 trial point group operations.


The static configuration has the point symmetry S_2 .
 The point group associated with its full space group is D_2h.


Analysis of symmetry for dynamics (positions and initial velocities):
=====================================================================
 Subroutine PRICEL returns following result:
 
  LATTYP: Found a simple orthorhombic cell.
 ALAT       =     4.3238071908
 B/A-ratio  =     1.0284187391
 C/A-ratio  =     1.4618323981
  
  Lattice vectors:
  
 A1 = (   4.3238071908,   0.0000000000,   0.0000000000)
 A2 = (   0.0000000000,   4.4466843391,   0.0000000000)
 A3 = (   0.0000000000,   0.0000000000,   6.3206814347)
 
   4 primitive cells build up your supercell.
 

 Routine SETGRP: Setting up the symmetry group for a 
 simple orthorhombic supercell.


 Subroutine GETGRP returns: Found  8 space group operations
 (whereof  2 operations were pure point group operations)
 out of a pool of  8 trial point group operations.


The dynamic configuration has the point symmetry S_2 .
 The point group associated with its full space group is D_2h.


Analysis of constrained symmetry for selective dynamics:
=====================================================================
 Subroutine PRICEL returns following result:
 
  LATTYP: Found a simple orthorhombic cell.
 ALAT       =     4.3238071908
 B/A-ratio  =     1.0284187391
 C/A-ratio  =     1.4618323981
  
  Lattice vectors:
  
 A1 = (   4.3238071908,   0.0000000000,   0.0000000000)
 A2 = (   0.0000000000,   4.4466843391,   0.0000000000)
 A3 = (   0.0000000000,   0.0000000000,   6.3206814347)
 
   4 primitive cells build up your supercell.
 

 Routine SETGRP: Setting up the symmetry group for a 
 simple orthorhombic supercell.


 Subroutine GETGRP returns: Found  8 space group operations
 (whereof  2 operations were pure point group operations)
 out of a pool of  8 trial point group operations.


The constrained configuration has the point symmetry S_2 .
 The point group associated with its full space group is D_2h.


 Subroutine INISYM returns: Found  8 space group operations
 (whereof  2 operations are pure point group operations),
 and found     4 'primitive' translations


----------------------------------------------------------------------------------------

                                     Primitive cell                                     

  volume of cell :     121.5252

  direct lattice vectors                    reciprocal lattice vectors
     4.323807191  0.000000000  0.000000000     0.231277658  0.000000000  0.000000000
     0.000000000  4.446684339  0.000000000     0.000000000  0.224886662  0.000000000
     0.000000000  0.000000000  6.320681435     0.000000000  0.000000000  0.158210790

  length of vectors
     4.323807191  4.446684339  6.320681435     0.231277658  0.224886662  0.158210790

  position of ions in fractional coordinates (direct lattice)
     0.252301010  0.031394432  0.389988368
     0.252301010  0.468605564  0.610011602
     0.247698990  0.531394421  0.110011610
     0.247698990  0.968605501  0.889988398
     0.747698961  0.968605501  0.610011602
     0.747698961  0.531394421  0.389988368
     0.752301039  0.468605564  0.889988398
     0.752301039  0.031394432  0.110011610
     0.107072531  0.102390997  0.654148561
     0.107072531  0.397608992  0.345851469
     0.392927454  0.602391023  0.845851439
     0.392927454  0.897608899  0.154148517
     0.892927514  0.897608899  0.345851469
     0.892927514  0.602391023  0.654148561
     0.607072486  0.397608992  0.154148517
     0.607072486  0.102390997  0.845851439
     0.050188047  0.249999994  0.000000000
     0.449811960  0.749999961  0.500000000
     0.949811900  0.749999961  0.000000000
     0.550188099  0.249999994  0.500000000

  ion indices of the primitive-cell ions
   primitive index   ion index
                 1           1
                 2           5
                 3          10
                 4          14
                 5          18
                 6          22
                 7          27
                 8          31
                 9          33
                10          37
                11          42
                12          46
                13          52
                14          56
                15          57
                16          61
                17          65
                18          70
                19          76
                20          77

----------------------------------------------------------------------------------------



 KPOINTS: k-points                                

Automatic generation of k-mesh.
 Grid dimensions read from file:
 generate k-points for:    4    4    4

 Generating k-lattice:

  Cartesian coordinates                     Fractional coordinates (reciprocal lattice)
     0.028909707  0.000000000  0.000000000     0.250000000  0.000000000  0.000000000
     0.000000000  0.028110833  0.000000000     0.000000000  0.250000000  0.000000000
     0.000000000  0.000000000  0.039552697     0.000000000  0.000000000  0.250000000

  Length of vectors
     0.028909707  0.028110833  0.039552697

  Shift w.r.t. Gamma in fractional coordinates (k-lattice)
     0.500000000  0.500000000  0.500000000

 
 Subroutine IBZKPT returns following result:
 ===========================================
 
 Found      8 irreducible k-points:
 
 Following reciprocal coordinates:
            Coordinates               Weight
  0.125000  0.125000  0.125000      8.000000
  0.375000  0.125000  0.125000      8.000000
  0.125000  0.375000  0.125000      8.000000
  0.375000  0.375000  0.125000      8.000000
  0.125000  0.125000  0.375000      8.000000
  0.375000  0.125000  0.375000      8.000000
  0.125000  0.375000  0.375000      8.000000
  0.375000  0.375000  0.375000      8.000000
 
 Following cartesian coordinates:
            Coordinates               Weight
  0.014455  0.014055  0.019776      8.000000
  0.043365  0.014055  0.019776      8.000000
  0.014455  0.042166  0.019776      8.000000
  0.043365  0.042166  0.019776      8.000000
  0.014455  0.014055  0.059329      8.000000
  0.043365  0.014055  0.059329      8.000000
  0.014455  0.042166  0.059329      8.000000
  0.043365  0.042166  0.059329      8.000000
 


--------------------------------------------------------------------------------------------------------




 Dimension of arrays:
   k-points           NKPTS =      8   k-points in BZ     NKDIM =      8   number of bands    NBANDS=    233
   number of dos      NEDOS =    301   number of ions     NIONS =     80
   non local maximal  LDIM  =      4   non local SUM 2l+1 LMDIM =      8
   total plane-waves  NPLWV =  64512
   max r-space proj   IRMAX =   1512   max aug-charges    IRDMAX=   5364
   dimension x,y,z NGX =    42 NGY =   48 NGZ =   32
   dimension x,y,z NGXF=    84 NGYF=   96 NGZF=   64
   support grid    NGXF=    84 NGYF=   96 NGZF=   64
   ions per type =              32  48
   NGX,Y,Z   is equivalent  to a cutoff of   8.07,  8.97,  8.42 a.u.
   NGXF,Y,Z  is equivalent  to a cutoff of  16.15, 17.95, 16.83 a.u.

 SYSTEM =  Alumina_orthorombic_cell_under_strain   
 POSCAR =     Al  O                                

 Startparameter for this run:
   NWRITE =      2    write-flag & timer
   PREC   = normal    normal or accurate (medium, high low for compatibility)
   ISTART =      0    job   : 0-new  1-cont  2-samecut
   ICHARG =      2    charge: 1-file 2-atom 10-const
   ISPIN  =      1    spin polarized calculation?
   LNONCOLLINEAR =      F non collinear calculations
   LSORBIT =      F    spin-orbit coupling
   INIWAV =      1    electr: 0-lowe 1-rand  2-diag
   LASPH  =      F    aspherical Exc in radial PAW
 Electronic Relaxation 1
   ENCUT  =  400.0 eV  29.40 Ry    5.42 a.u.  14.10 14.50 10.31*2*pi/ulx,y,z
   ENINI  =  400.0     initial cutoff
   ENAUG  =  605.4 eV  augmentation charge cutoff
   NELM   =    100;   NELMIN=  2; NELMDL= -5     # of ELM steps 
   EDIFF  = 0.1E-05   stopping-criterion for ELM
   LREAL  =      T    real-space projection
   NLSPLINE    = F    spline interpolate recip. space projectors
   LCOMPAT=      F    compatible to vasp.4.4
   GGA_COMPAT  = T    GGA compatible to vasp.4.4-vasp.4.6
   LMAXPAW     = -100 max onsite density
   LMAXMIX     =    2 max onsite mixed and CHGCAR
   VOSKOWN=      0    Vosko Wilk Nusair interpolation
   ROPT   =   -0.00050  -0.00050
 Ionic relaxation
   EDIFFG = -.1E-02   stopping-criterion for IOM
   NSW    =      0    number of steps for IOM
   NBLOCK =      1;   KBLOCK =      1    inner block; outer block 
   IBRION =     -1    ionic relax: 0-MD 1-quasi-New 2-CG
   NFREE  =      0    steps in history (QN), initial steepest desc. (CG)
   ISIF   =      2    stress and relaxation
   IWAVPR =     10    prediction:  0-non 1-charg 2-wave 3-comb
   ISYM   =      2    0-nonsym 1-usesym 2-fastsym
   LCORR  =      T    Harris-Foulkes like correction to forces

   POTIM  = 0.5000    time-step for ionic-motion
   TEIN   =    0.0    initial temperature
   TEBEG  =    0.0;   TEEND  =   0.0 temperature during run
   SMASS  =  -3.00    Nose mass-parameter (am)
   estimated Nose-frequenzy (Omega)   =  0.10E-29 period in steps = 0.13E+47 mass=  -0.171E-26a.u.
   SCALEE = 1.0000    scale energy and forces
   NPACO  =    256;   APACO  = 10.0  distance and # of slots for P.C.
   PSTRESS=    0.0 pullay stress

  Mass of Ions in am
   POMASS =  26.98 16.00
  Ionic Valenz
   ZVAL   =   3.00  6.00
  Atomic Wigner-Seitz radii
   RWIGS  =  -1.00 -1.00
  virtual crystal weights 
   VCA    =   1.00  1.00
   NELECT =     384.0000    total number of electrons
   NUPDOWN=      -1.0000    fix difference up-down

 DOS related values:
   EMIN   =  10.00;   EMAX   =-10.00  energy-range for DOS
   EFERMI =   0.00
   ISMEAR =     1;   SIGMA  =   0.03  broadening in eV -4-tet -1-fermi 0-gaus

 Electronic relaxation 2 (details)
   IALGO  =     38    algorithm
   LDIAG  =      T    sub-space diagonalisation (order eigenvalues)
   LSUBROT=      F    optimize rotation matrix (better conditioning)
   TURBO    =      0    0=normal 1=particle mesh
   IRESTART =      0    0=no restart 2=restart with 2 vectors
   NREBOOT  =      0    no. of reboots
   NMIN     =      0    reboot dimension
   EREF     =   0.00    reference energy to select bands
   IMIX   =      4    mixing-type and parameters
     AMIX     =   0.40;   BMIX     =  1.00
     AMIX_MAG =   1.60;   BMIX_MAG =  1.00
     AMIN     =   0.10
     WC   =   100.;   INIMIX=   1;  MIXPRE=   1;  MAXMIX= -45

 Intra band minimization:
   WEIMIN = 0.0000     energy-eigenvalue tresh-hold
   EBREAK =  0.11E-08  absolut break condition
   DEPER  =   0.30     relativ break condition  

   TIME   =   0.40     timestep for ELM

  volume/ion in A,a.u.               =       6.08        41.00
  Fermi-wavevector in a.u.,A,eV,Ry     =   1.513363  2.859841 31.160976  2.290267
  Thomas-Fermi vector in A             =   2.623164

 Write flags
   LWAVE        =      T    write WAVECAR
   LDOWNSAMPLE  =      F    k-point downsampling of WAVECAR
   LCHARG       =      T    write CHGCAR
   LVTOT        =      F    write LOCPOT, total local potential
   LVHAR        =      F    write LOCPOT, Hartree potential only
   LELF         =      F    write electronic localiz. function (ELF)
   LORBIT       =      0    0 simple, 1 ext, 2 COOP (PROOUT), +10 PAW based schemes


 Dipole corrections
   LMONO  =      F    monopole corrections only (constant potential shift)
   LDIPOL =      F    correct potential (dipole corrections)
   IDIPOL =      0    1-x, 2-y, 3-z, 4-all directions 
   EPSILON=  1.0000000 bulk dielectric constant

 Exchange correlation treatment:
   GGA     =    --    GGA type
   LEXCH   =     8    internal setting for exchange type
   LIBXC   =     F    Libxc                    
   VOSKOWN =     0    Vosko Wilk Nusair interpolation
   LHFCALC =     F    Hartree Fock is set to
   LHFONE  =     F    Hartree Fock one center treatment
   AEXX    =    0.0000 exact exchange contribution

 Linear response parameters
   LEPSILON=     F    determine dielectric tensor
   LRPA    =     F    only Hartree local field effects (RPA)
   LNABLA  =     F    use nabla operator in PAW spheres
   LVEL    =     F    velocity operator in full k-point grid
   CSHIFT  =0.1000    complex shift for real part using Kramers Kronig
   OMEGAMAX=  -1.0    maximum frequency
   DEG_THRESHOLD= 0.2000000E-02 threshold for treating states as degnerate
   RTIME   =   -0.100 relaxation time in fs
  (WPLASMAI=    0.000 imaginary part of plasma frequency in eV, 0.658/RTIME)
   DFIELD  = 0.0000000 0.0000000 0.0000000 field for delta impulse in time

  Optional k-point grid parameters
   LKPOINTS_OPT  =     F    use optional k-point grid
   KPOINTS_OPT_MODE=     1    mode for optional k-point grid

 Orbital magnetization related:
   ORBITALMAG=     F  switch on orbital magnetization
   LCHIMAG   =     F  perturbation theory with respect to B field
   DQ        =  0.001000  dq finite difference perturbation B field
   LLRAUG    =     F  two centre corrections for induced B field



--------------------------------------------------------------------------------------------------------


 Static calculation
 charge density and potential will be updated during run
 non-spin polarized calculation
 Variant of blocked Davidson
 Davidson routine will perform the subspace rotation
 perform sub-space diagonalisation
    after iterative eigenvector-optimisation
 modified Broyden-mixing scheme, WC =      100.0
 initial mixing is a Kerker type mixing with AMIX =  0.4000 and BMIX =      1.0000
 Hartree-type preconditioning will be used
 using additional bands           41
 real space projection scheme for non local part
 use partial core corrections
 calculate Harris-corrections to forces   (improved forces if not selfconsistent)
 use gradient corrections 
 use of overlap-Matrix (Vanderbilt PP)
 Methfessel and Paxton  Order N= 1 SIGMA  =   0.03


--------------------------------------------------------------------------------------------------------


  energy-cutoff  :      400.00
  volume of cell :      486.10
      direct lattice vectors                 reciprocal lattice vectors
     8.647614381  0.000000000  0.000000000     0.115638829  0.000000000  0.000000000
     0.000000000  8.893368479  0.000000000     0.000000000  0.112443334  0.000000000
     0.000000000  0.000000000  6.320681435     0.000000000  0.000000000  0.158210790

  length of vectors
     8.647614381  8.893368479  6.320681435     0.115638829  0.112443334  0.158210790



 k-points in units of 2pi/SCALE and weight: k-points                                
   0.01445485  0.01405542  0.01977635       0.125
   0.04336456  0.01405542  0.01977635       0.125
   0.01445485  0.04216625  0.01977635       0.125
   0.04336456  0.04216625  0.01977635       0.125
   0.01445485  0.01405542  0.05932905       0.125
   0.04336456  0.01405542  0.05932905       0.125
   0.01445485  0.04216625  0.05932905       0.125
   0.04336456  0.04216625  0.05932905       0.125

 k-points in reciprocal lattice and weights: k-points                                
   0.12500000  0.12500000  0.12500000       0.125
   0.37500000  0.12500000  0.12500000       0.125
   0.12500000  0.37500000  0.12500000       0.125
   0.37500000  0.37500000  0.12500000       0.125
   0.12500000  0.12500000  0.37500000       0.125
   0.37500000  0.12500000  0.37500000       0.125
   0.12500000  0.37500000  0.37500000       0.125
   0.37500000  0.37500000  0.37500000       0.125

 position of ions in fractional coordinates (direct lattice) 
   0.12615050  0.01569722  0.38998837
   0.12615050  0.51569723  0.38998837
   0.62615052  0.01569722  0.38998837
   0.62615052  0.51569723  0.38998837
   0.12615050  0.23430279  0.61001160
   0.12615050  0.73430277  0.61001160
   0.62615052  0.23430279  0.61001160
   0.62615052  0.73430277  0.61001160
   0.12384950  0.26569723  0.11001161
   0.12384950  0.76569723  0.11001161
   0.62384948  0.26569723  0.11001161
   0.62384948  0.76569723  0.11001161
   0.12384950  0.48430277  0.88998840
   0.12384950  0.98430277  0.88998840
   0.62384948  0.48430277  0.88998840
   0.62384948  0.98430277  0.88998840
   0.37384948  0.48430277  0.61001160
   0.37384948  0.98430277  0.61001160
   0.87384948  0.48430277  0.61001160
   0.87384948  0.98430277  0.61001160
   0.37384948  0.26569723  0.38998837
   0.37384948  0.76569723  0.38998837
   0.87384948  0.26569723  0.38998837
   0.87384948  0.76569723  0.38998837
   0.37615052  0.23430279  0.88998840
   0.37615052  0.73430277  0.88998840
   0.87615052  0.23430279  0.88998840
   0.87615052  0.73430277  0.88998840
   0.37615052  0.01569722  0.11001161
   0.37615052  0.51569723  0.11001161
   0.87615052  0.01569722  0.11001161
   0.87615052  0.51569723  0.11001161
   0.05353627  0.05119550  0.65414856
   0.05353627  0.55119553  0.65414856
   0.55353624  0.05119550  0.65414856
   0.55353624  0.55119553  0.65414856
   0.05353627  0.19880450  0.34585147
   0.05353627  0.69880447  0.34585147
   0.55353624  0.19880450  0.34585147
   0.55353624  0.69880447  0.34585147
   0.19646373  0.30119550  0.84585144
   0.19646373  0.80119553  0.84585144
   0.69646370  0.30119550  0.84585144
   0.69646370  0.80119553  0.84585144
   0.19646373  0.44880450  0.15414852
   0.19646373  0.94880447  0.15414852
   0.69646370  0.44880450  0.15414852
   0.69646370  0.94880447  0.15414852
   0.44646376  0.44880450  0.34585147
   0.44646376  0.94880447  0.34585147
   0.94646376  0.44880450  0.34585147
   0.94646376  0.94880447  0.34585147
   0.44646376  0.30119550  0.65414856
   0.44646376  0.80119553  0.65414856
   0.94646376  0.30119550  0.65414856
   0.94646376  0.80119553  0.65414856
   0.30353624  0.19880450  0.15414852
   0.30353624  0.69880447  0.15414852
   0.80353624  0.19880450  0.15414852
   0.80353624  0.69880447  0.15414852
   0.30353624  0.05119550  0.84585144
   0.30353624  0.55119553  0.84585144
   0.80353624  0.05119550  0.84585144
   0.80353624  0.55119553  0.84585144
   0.02509402  0.12500000  0.00000000
   0.02509402  0.62500000  0.00000000
   0.52509405  0.12500000  0.00000000
   0.52509405  0.62500000  0.00000000
   0.22490598  0.37500000  0.50000000
   0.22490598  0.87500000  0.50000000
   0.72490601  0.37500000  0.50000000
   0.72490601  0.87500000  0.50000000
   0.47490595  0.37500000  0.00000000
   0.47490595  0.87500000  0.00000000
   0.97490595  0.37500000  0.00000000
   0.97490595  0.87500000  0.00000000
   0.27509405  0.12500000  0.50000000
   0.27509405  0.62500000  0.50000000
   0.77509405  0.12500000  0.50000000
   0.77509405  0.62500000  0.50000000

 position of ions in cartesian coordinates  (Angst):
   1.09090092  0.13960113  2.46499224
   1.09090092  4.58628547  2.46499224
   5.41470824  0.13960113  2.46499224
   5.41470824  4.58628547  2.46499224
   1.09090092  2.08374102  3.85568901
   1.09090092  6.53042513  3.85568901
   5.41470824  2.08374102  3.85568901
   5.41470824  6.53042513  3.85568901
   1.07100268  2.36294335  0.69534834
   1.07100268  6.80962759  0.69534834
   5.39480974  2.36294335  0.69534834
   5.39480974  6.80962759  0.69534834
   1.07100268  4.30708301  5.62533314
   1.07100268  8.75376725  5.62533314
   5.39480974  4.30708301  5.62533314
   5.39480974  8.75376725  5.62533314
   3.23290614  4.30708301  3.85568901
   3.23290614  8.75376725  3.85568901
   7.55671333  4.30708301  3.85568901
   7.55671333  8.75376725  3.85568901
   3.23290614  2.36294335  2.46499224
   3.23290614  6.80962759  2.46499224
   7.55671333  2.36294335  2.46499224
   7.55671333  6.80962759  2.46499224
   3.25280464  2.08374102  5.62533314
   3.25280464  6.53042513  5.62533314
   7.57661183  2.08374102  5.62533314
   7.57661183  6.53042513  5.62533314
   3.25280464  0.13960113  0.69534834
   3.25280464  4.58628547  0.69534834
   7.57661183  0.13960113  0.69534834
   7.57661183  4.58628547  0.69534834
   0.46296098  0.45530044  4.13466467
   0.46296098  4.90198495  4.13466467
   4.78676798  0.45530044  4.13466467
   4.78676798  4.90198495  4.13466467
   0.46296098  1.76804168  2.18601696
   0.46296098  6.21472565  2.18601696
   4.78676798  1.76804168  2.18601696
   4.78676798  6.21472565  2.18601696
   1.69894255  2.67864256  5.34635749
   1.69894255  7.12532707  5.34635749
   6.02274949  2.67864256  5.34635749
   6.02274949  7.12532707  5.34635749
   1.69894255  3.99138380  0.97432367
   1.69894255  8.43806777  0.97432367
   6.02274949  3.99138380  0.97432367
   6.02274949  8.43806777  0.97432367
   3.86084641  3.99138380  2.18601696
   3.86084641  8.43806777  2.18601696
   8.18465360  3.99138380  2.18601696
   8.18465360  8.43806777  2.18601696
   3.86084641  2.67864256  4.13466467
   3.86084641  7.12532707  4.13466467
   8.18465360  2.67864256  4.13466467
   8.18465360  7.12532707  4.13466467
   2.62486438  1.76804168  0.97432367
   2.62486438  6.21472565  0.97432367
   6.94867157  1.76804168  0.97432367
   6.94867157  6.21472565  0.97432367
   2.62486438  0.45530044  5.34635749
   2.62486438  4.90198495  5.34635749
   6.94867157  0.45530044  5.34635749
   6.94867157  4.90198495  5.34635749
   0.21700344  1.11167106  0.00000000
   0.21700344  5.55835530  0.00000000
   4.54081086  1.11167106  0.00000000
   4.54081086  5.55835530  0.00000000
   1.94490019  3.33501318  3.16034072
   1.94490019  7.78169742  3.16034072
   6.26870764  3.33501318  3.16034072
   6.26870764  7.78169742  3.16034072
   4.10680353  3.33501318  0.00000000
   4.10680353  7.78169742  0.00000000
   8.43061072  3.33501318  0.00000000
   8.43061072  7.78169742  0.00000000
   2.37890726  1.11167106  3.16034072
   2.37890726  5.55835530  3.16034072
   6.70271445  1.11167106  3.16034072
   6.70271445  5.55835530  3.16034072



--------------------------------------------------------------------------------------------------------


 k-point   1 :   0.1250 0.1250 0.1250  plane waves:    8845
 k-point   2 :   0.3750 0.1250 0.1250  plane waves:    8840
 k-point   3 :   0.1250 0.3750 0.1250  plane waves:    8833
 k-point   4 :   0.3750 0.3750 0.1250  plane waves:    8834
 k-point   5 :   0.1250 0.1250 0.3750  plane waves:    8819
 k-point   6 :   0.3750 0.1250 0.3750  plane waves:    8847
 k-point   7 :   0.1250 0.3750 0.3750  plane waves:    8807
 k-point   8 :   0.3750 0.3750 0.3750  plane waves:    8832

 maximum and minimum number of plane-waves per node :      8847     8807

 maximum number of plane-waves:      8847
 maximum index in each direction: 
   IXMAX=   13   IYMAX=   14   IZMAX=   10
   IXMIN=  -14   IYMIN=  -14   IZMIN=  -10


 serial   3D FFT for wavefunctions
 parallel 3D FFT for charge:
    minimum data exchange during FFTs selected (reduces bandwidth)


 total amount of memory used by VASP MPI-rank0   372505. kBytes
=======================================================================

   base      :      30000. kBytes
   nonlr-proj:       9041. kBytes
   fftplans  :      18120. kBytes
   grid      :      32159. kBytes
   one-center:        245. kBytes
   wavefun   :     282940. kBytes

     INWAV:  cpu time      0.0001: real time      0.0002
 Broyden mixing: mesh for mixing (old mesh)
   NGX = 29   NGY = 29   NGZ = 21
  (NGX  = 84   NGY  = 96   NGZ  = 64)
  gives a total of  17661 points

 initial charge density was supplied:
 charge density of overlapping atoms calculated
 number of electron     384.0000000 magnetization 
 keeping initial charge density in first step


--------------------------------------------------------------------------------------------------------


 Maximum index for non-local projection operator         1422
 Maximum index for augmentation-charges         5007 (set IRDMAX)


--------------------------------------------------------------------------------------------------------


 First call to EWALD:  gamma=   0.225
 Maximum number of real-space cells 3x 2x 3
 Maximum number of reciprocal cells 3x 3x 2

    FEWALD:  cpu time      0.0731: real time      0.0734


--------------------------------------- Iteration      1(   1)  ---------------------------------------


    POTLOK:  cpu time      0.2681: real time      0.2695
    SETDIJ:  cpu time      0.0907: real time      0.0910
     EDDAV:  cpu time     36.4781: real time     36.8165
       DOS:  cpu time      0.0023: real time      0.0025
    --------------------------------------------
      LOOP:  cpu time     36.8392: real time     37.1796

 eigenvalue-minimisations  :  3728
 total energy-change (2. order) : 0.2002474E+04  (-0.1869675E+05)
 number of electron     384.0000000 magnetization 
 augmentation part      384.0000000 magnetization 

 Free energy of the ion-electron system (eV)
  ---------------------------------------------------
  alpha Z        PSCENC =       849.84481279
  Ewald energy   TEWEN  =    -21650.71376383
  -Hartree energ DENC   =     -4090.25629386
  -exchange      EXHF   =         0.00000000
  -V(xc)+E(xc)   XCENC  =       598.60827177
  PAW double counting   =     18752.77991877   -17816.57094691
  entropy T*S    EENTRO =         0.00097792
  eigenvalues    EBANDS =      2896.92671704
  atomic energy  EATOM  =     22461.85434800
  Solvation  Ediel_sol  =         0.00000000
  ---------------------------------------------------
  free energy    TOTEN  =      2002.47404168 eV

  energy without entropy =     2002.47306377  energy(sigma->0) =     2002.47371571


--------------------------------------------------------------------------------------------------------




--------------------------------------- Iteration      1(   2)  ---------------------------------------


     EDDAV:  cpu time     40.9594: real time     41.3374
       DOS:  cpu time      0.0022: real time      0.0022
    --------------------------------------------
      LOOP:  cpu time     40.9616: real time     41.3398

 eigenvalue-minimisations  :  4304
 total energy-change (2. order) :-0.2499770E+04  (-0.2446832E+04)
 number of electron     384.0000000 magnetization 
 augmentation part      384.0000000 magnetization 

 Free energy of the ion-electron system (eV)
  ---------------------------------------------------
  alpha Z        PSCENC =       849.84481279
  Ewald energy   TEWEN  =    -21650.71376383
  -Hartree energ DENC   =     -4090.25629386
  -exchange      EXHF   =         0.00000000
  -V(xc)+E(xc)   XCENC  =       598.60827177
  PAW double counting   =     18752.77991877   -17816.57094691
  entropy T*S    EENTRO =         0.00018843
  eigenvalues    EBANDS =       397.15774199
  atomic energy  EATOM  =     22461.85434800
  Solvation  Ediel_sol  =         0.00000000
  ---------------------------------------------------
  free energy    TOTEN  =      -497.29572285 eV

  energy without entropy =     -497.29591128  energy(sigma->0) =     -497.29578566


--------------------------------------------------------------------------------------------------------




--------------------------------------- Iteration      1(   3)  ---------------------------------------


     EDDAV:  cpu time     41.4328: real time     41.8187
       DOS:  cpu time      0.0023: real time      0.0025
    --------------------------------------------
      LOOP:  cpu time     41.4351: real time     41.8210

 eigenvalue-minimisations  :  4368
 total energy-change (2. order) :-0.9977576E+02  (-0.9950271E+02)
 number of electron     384.0000000 magnetization 
 augmentation part      384.0000000 magnetization 

 Free energy of the ion-electron system (eV)
  ---------------------------------------------------
  alpha Z        PSCENC =       849.84481279
  Ewald energy   TEWEN  =    -21650.71376383
  -Hartree energ DENC   =     -4090.25629386
  -exchange      EXHF   =         0.00000000
  -V(xc)+E(xc)   XCENC  =       598.60827177
  PAW double counting   =     18752.77991877   -17816.57094691
  entropy T*S    EENTRO =         0.00064074
  eigenvalues    EBANDS =       297.38152714
  atomic energy  EATOM  =     22461.85434800
  Solvation  Ediel_sol  =         0.00000000
  ---------------------------------------------------
  free energy    TOTEN  =      -597.07148539 eV

  energy without entropy =     -597.07212614  energy(sigma->0) =     -597.07169898


--------------------------------------------------------------------------------------------------------




--------------------------------------- Iteration      1(   4)  ---------------------------------------


     EDDAV:  cpu time     41.1609: real time     41.5454
       DOS:  cpu time      0.0022: real time      0.0024
    --------------------------------------------
      LOOP:  cpu time     41.1631: real time     41.5478

 eigenvalue-minimisations  :  4344
 total energy-change (2. order) :-0.8347522E+00  (-0.8333877E+00)
 number of electron     384.0000000 magnetization 
 augmentation part      384.0000000 magnetization 

 Free energy of the ion-electron system (eV)
  ---------------------------------------------------
  alpha Z        PSCENC =       849.84481279
  Ewald energy   TEWEN  =    -21650.71376383
  -Hartree energ DENC   =     -4090.25629386
  -exchange      EXHF   =         0.00000000
  -V(xc)+E(xc)   XCENC  =       598.60827177
  PAW double counting   =     18752.77991877   -17816.57094691
  entropy T*S    EENTRO =         0.00064316
  eigenvalues    EBANDS =       296.54677257
  atomic energy  EATOM  =     22461.85434800
  Solvation  Ediel_sol  =         0.00000000
  ---------------------------------------------------
  free energy    TOTEN  =      -597.90623755 eV

  energy without entropy =     -597.90688070  energy(sigma->0) =     -597.90645193


--------------------------------------------------------------------------------------------------------




--------------------------------------- Iteration      1(   5)  ---------------------------------------


     EDDAV:  cpu time     40.9869: real time     41.3628
       DOS:  cpu time      0.0022: real time      0.0022
    CHARGE:  cpu time      1.3290: real time      1.3373
    MIXING:  cpu time      0.0111: real time      0.0111
    --------------------------------------------
      LOOP:  cpu time     42.3291: real time     42.7134

 eigenvalue-minimisations  :  4328
 total energy-change (2. order) :-0.1085652E-01  (-0.1085065E-01)
 number of electron     383.9999736 magnetization 
 augmentation part       39.9581127 magnetization 

 Broyden mixing:
  rms(total) = 0.59908E+01    rms(broyden)= 0.59891E+01
  rms(prec ) = 0.77310E+01
  weight for this iteration     100.00

 Free energy of the ion-electron system (eV)
  ---------------------------------------------------
  alpha Z        PSCENC =       849.84481279
  Ewald energy   TEWEN  =    -21650.71376383
  -Hartree energ DENC   =     -4090.25629386
  -exchange      EXHF   =         0.00000000
  -V(xc)+E(xc)   XCENC  =       598.60827177
  PAW double counting   =     18752.77991877   -17816.57094691
  entropy T*S    EENTRO =         0.00064329
  eigenvalues    EBANDS =       296.53591591
  atomic energy  EATOM  =     22461.85434800
  Solvation  Ediel_sol  =         0.00000000
  ---------------------------------------------------
  free energy    TOTEN  =      -597.91709407 eV

  energy without entropy =     -597.91773737  energy(sigma->0) =     -597.91730850


--------------------------------------------------------------------------------------------------------




--------------------------------------- Iteration      1(   6)  ---------------------------------------


    POTLOK:  cpu time      0.2699: real time      0.2719
    SETDIJ:  cpu time      0.0798: real time      0.0802
     EDDAV:  cpu time     39.6906: real time     40.0522
       DOS:  cpu time      0.0022: real time      0.0022
    CHARGE:  cpu time      1.3160: real time      1.3252
    MIXING:  cpu time      0.0095: real time      0.0096
    --------------------------------------------
      LOOP:  cpu time     41.3680: real time     41.7412

 eigenvalue-minimisations  :  4176
 total energy-change (2. order) : 0.7906036E+02  (-0.2597534E+02)
 number of electron     383.9999765 magnetization 
 augmentation part       34.9794623 magnetization 

 Broyden mixing:
  rms(total) = 0.22753E+01    rms(broyden)= 0.22740E+01
  rms(prec ) = 0.25608E+01
  weight for this iteration     100.00

 eigenvalues of (default mixing * dielectric matrix)
  average eigenvalue GAMMA=   1.1725
  1.1725

 Free energy of the ion-electron system (eV)
  ---------------------------------------------------
  alpha Z        PSCENC =       849.84481279
  Ewald energy   TEWEN  =    -21650.71376383
  -Hartree energ DENC   =     -4822.05158144
  -exchange      EXHF   =         0.00000000
  -V(xc)+E(xc)   XCENC  =       653.17613227
  PAW double counting   =     28442.72971122   -27526.08751605
  entropy T*S    EENTRO =         0.00040730
  eigenvalues    EBANDS =      1072.39071855
  atomic energy  EATOM  =     22461.85434800
  Solvation  Ediel_sol  =         0.00000000
  ---------------------------------------------------
  free energy    TOTEN  =      -518.85673119 eV

  energy without entropy =     -518.85713848  energy(sigma->0) =     -518.85686695


--------------------------------------------------------------------------------------------------------




--------------------------------------- Iteration      1(   7)  ---------------------------------------


    POTLOK:  cpu time      0.2648: real time      0.2666
    SETDIJ:  cpu time      0.0793: real time      0.0796
     EDDAV:  cpu time     41.1077: real time     41.4803
       DOS:  cpu time      0.0022: real time      0.0022
    CHARGE:  cpu time      1.3862: real time      1.3975
    MIXING:  cpu time      0.0097: real time      0.0098
    --------------------------------------------
      LOOP:  cpu time     42.8499: real time     43.2362

 eigenvalue-minimisations  :  4328
 total energy-change (2. order) : 0.2102484E+01  (-0.1599485E+01)
 number of electron     383.9999768 magnetization 
 augmentation part       33.9373240 magnetization 

 Broyden mixing:
  rms(total) = 0.10534E+01    rms(broyden)= 0.10529E+01
  rms(prec ) = 0.11581E+01
  weight for this iteration     100.00

 eigenvalues of (default mixing * dielectric matrix)
  average eigenvalue GAMMA=   1.4323
  1.4323  1.4323

 Free energy of the ion-electron system (eV)
  ---------------------------------------------------
  alpha Z        PSCENC =       849.84481279
  Ewald energy   TEWEN  =    -21650.71376383
  -Hartree energ DENC   =     -4997.28892003
  -exchange      EXHF   =         0.00000000
  -V(xc)+E(xc)   XCENC  =       667.63538330
  PAW double counting   =     39672.14852194   -38759.64185478
  entropy T*S    EENTRO =         0.00031403
  eigenvalues    EBANDS =      1239.40691096
  atomic energy  EATOM  =     22461.85434800
  Solvation  Ediel_sol  =         0.00000000
  ---------------------------------------------------
  free energy    TOTEN  =      -516.75424761 eV

  energy without entropy =     -516.75456164  energy(sigma->0) =     -516.75435228


--------------------------------------------------------------------------------------------------------




--------------------------------------- Iteration      1(   8)  ---------------------------------------


    POTLOK:  cpu time      0.2706: real time      0.2741
    SETDIJ:  cpu time      0.0793: real time      0.0797
     EDDAV:  cpu time     40.6433: real time     41.0145
       DOS:  cpu time      0.0023: real time      0.0023
    CHARGE:  cpu time      1.3184: real time      1.3281
    MIXING:  cpu time      0.0109: real time      0.0110
    --------------------------------------------
      LOOP:  cpu time     42.3248: real time     42.7097

 eigenvalue-minimisations  :  4272
 total energy-change (2. order) : 0.5493949E-01  (-0.7045306E-01)
 number of electron     383.9999768 magnetization 
 augmentation part       34.0913332 magnetization 

 Broyden mixing:
  rms(total) = 0.28793E+00    rms(broyden)= 0.28791E+00
  rms(prec ) = 0.34217E+00
  weight for this iteration     100.00

 eigenvalues of (default mixing * dielectric matrix)
  average eigenvalue GAMMA=   1.6261
  2.4918  1.1933  1.1933

 Free energy of the ion-electron system (eV)
  ---------------------------------------------------
  alpha Z        PSCENC =       849.84481279
  Ewald energy   TEWEN  =    -21650.71376383
  -Hartree energ DENC   =     -5010.03880933
  -exchange      EXHF   =         0.00000000
  -V(xc)+E(xc)   XCENC  =       670.31902711
  PAW double counting   =     47622.13818703   -46710.33571395
  entropy T*S    EENTRO =         0.00031473
  eigenvalues    EBANDS =      1250.23228933
  atomic energy  EATOM  =     22461.85434800
  Solvation  Ediel_sol  =         0.00000000
  ---------------------------------------------------
  free energy    TOTEN  =      -516.69930812 eV

  energy without entropy =     -516.69962285  energy(sigma->0) =     -516.69941303


--------------------------------------------------------------------------------------------------------




--------------------------------------- Iteration      1(   9)  ---------------------------------------


    POTLOK:  cpu time      0.2631: real time      0.2652
    SETDIJ:  cpu time      0.0796: real time      0.0800
     EDDAV:  cpu time     41.2526: real time     41.6294
       DOS:  cpu time      0.0021: real time      0.0021
    CHARGE:  cpu time      1.2937: real time      1.3031
    MIXING:  cpu time      0.0102: real time      0.0102
    --------------------------------------------
      LOOP:  cpu time     42.9012: real time     43.2899

 eigenvalue-minimisations  :  4368
 total energy-change (2. order) :-0.1214128E-01  (-0.2403224E-01)
 number of electron     383.9999769 magnetization 
 augmentation part       33.9587790 magnetization 

 Broyden mixing:
  rms(total) = 0.11478E+00    rms(broyden)= 0.11473E+00
  rms(prec ) = 0.11858E+00
  weight for this iteration     100.00

 eigenvalues of (default mixing * dielectric matrix)
  average eigenvalue GAMMA=   1.7947
  1.0932  1.0932  2.4962  2.4962

 Free energy of the ion-electron system (eV)
  ---------------------------------------------------
  alpha Z        PSCENC =       849.84481279
  Ewald energy   TEWEN  =    -21650.71376383
  -Hartree energ DENC   =     -5045.44571896
  -exchange      EXHF   =         0.00000000
  -V(xc)+E(xc)   XCENC  =       673.81590873
  PAW double counting   =     50741.51733922   -49830.76941818
  entropy T*S    EENTRO =         0.00030605
  eigenvalues    EBANDS =      1283.18473678
  atomic energy  EATOM  =     22461.85434800
  Solvation  Ediel_sol  =         0.00000000
  ---------------------------------------------------
  free energy    TOTEN  =      -516.71144940 eV

  energy without entropy =     -516.71175546  energy(sigma->0) =     -516.71155142


--------------------------------------------------------------------------------------------------------




--------------------------------------- Iteration      1(  10)  ---------------------------------------


    POTLOK:  cpu time      0.2714: real time      0.2735
    SETDIJ:  cpu time      0.0797: real time      0.0801
     EDDAV:  cpu time     40.3706: real time     40.7383
       DOS:  cpu time      0.0022: real time      0.0024
    CHARGE:  cpu time      1.3722: real time      1.3822
    MIXING:  cpu time      0.0117: real time      0.0118
    --------------------------------------------
      LOOP:  cpu time     42.1077: real time     42.4883

 eigenvalue-minimisations  :  4248
 total energy-change (2. order) :-0.1674905E-02  (-0.2974670E-02)
 number of electron     383.9999768 magnetization 
 augmentation part       33.9982853 magnetization 

 Broyden mixing:
  rms(total) = 0.18553E-01    rms(broyden)= 0.18538E-01
  rms(prec ) = 0.24730E-01
  weight for this iteration     100.00

 eigenvalues of (default mixing * dielectric matrix)
  average eigenvalue GAMMA=   1.6075
  2.6172  2.2612  1.0013  1.0013  1.1567

 Free energy of the ion-electron system (eV)
  ---------------------------------------------------
  alpha Z        PSCENC =       849.84481279
  Ewald energy   TEWEN  =    -21650.71376383
  -Hartree energ DENC   =     -5040.84499164
  -exchange      EXHF   =         0.00000000
  -V(xc)+E(xc)   XCENC  =       673.55643936
  PAW double counting   =     49381.58835098   -48470.54688207
  entropy T*S    EENTRO =         0.00030198
  eigenvalues    EBANDS =      1278.54826012
  atomic energy  EATOM  =     22461.85434800
  Solvation  Ediel_sol  =         0.00000000
  ---------------------------------------------------
  free energy    TOTEN  =      -516.71312431 eV

  energy without entropy =     -516.71342629  energy(sigma->0) =     -516.71322497


--------------------------------------------------------------------------------------------------------




--------------------------------------- Iteration      1(  11)  ---------------------------------------


    POTLOK:  cpu time      0.2737: real time      0.2759
    SETDIJ:  cpu time      0.0791: real time      0.0795
     EDDAV:  cpu time     40.5865: real time     40.9608
       DOS:  cpu time      0.0022: real time      0.0024
    CHARGE:  cpu time      1.3189: real time      1.3286
    MIXING:  cpu time      0.0125: real time      0.0126
    --------------------------------------------
      LOOP:  cpu time     42.2728: real time     42.6598

 eigenvalue-minimisations  :  4312
 total energy-change (2. order) : 0.6194808E-03  (-0.5304604E-03)
 number of electron     383.9999769 magnetization 
 augmentation part       33.9824571 magnetization 

 Broyden mixing:
  rms(total) = 0.18541E-01    rms(broyden)= 0.18538E-01
  rms(prec ) = 0.19712E-01
  weight for this iteration     100.00

 eigenvalues of (default mixing * dielectric matrix)
  average eigenvalue GAMMA=   1.6039
  2.7775  2.4898  1.0831  1.0831  1.0948  1.0948

 Free energy of the ion-electron system (eV)
  ---------------------------------------------------
  alpha Z        PSCENC =       849.84481279
  Ewald energy   TEWEN  =    -21650.71376383
  -Hartree energ DENC   =     -5043.33872685
  -exchange      EXHF   =         0.00000000
  -V(xc)+E(xc)   XCENC  =       673.76075167
  PAW double counting   =     49599.99420268   -48689.04559932
  entropy T*S    EENTRO =         0.00030396
  eigenvalues    EBANDS =      1280.93116607
  atomic energy  EATOM  =     22461.85434800
  Solvation  Ediel_sol  =         0.00000000
  ---------------------------------------------------
  free energy    TOTEN  =      -516.71250483 eV

  energy without entropy =     -516.71280878  energy(sigma->0) =     -516.71260615


--------------------------------------------------------------------------------------------------------




--------------------------------------- Iteration      1(  12)  ---------------------------------------


    POTLOK:  cpu time      0.2650: real time      0.2672
    SETDIJ:  cpu time      0.0791: real time      0.0795
     EDDAV:  cpu time     39.8617: real time     40.2308
       DOS:  cpu time      0.0021: real time      0.0021
    CHARGE:  cpu time      1.2997: real time      1.3098
    MIXING:  cpu time      0.0124: real time      0.0125
    --------------------------------------------
      LOOP:  cpu time     41.5200: real time     41.9018

 eigenvalue-minimisations  :  4192
 total energy-change (2. order) : 0.1869960E-04  (-0.1648281E-03)
 number of electron     383.9999769 magnetization 
 augmentation part       33.9868258 magnetization 

 Broyden mixing:
  rms(total) = 0.35610E-02    rms(broyden)= 0.35494E-02
  rms(prec ) = 0.42363E-02
  weight for this iteration     100.00

 eigenvalues of (default mixing * dielectric matrix)
  average eigenvalue GAMMA=   1.5372
  2.7975  2.4549  1.2581  1.0749  1.0749  1.0499  1.0499

 Free energy of the ion-electron system (eV)
  ---------------------------------------------------
  alpha Z        PSCENC =       849.84481279
  Ewald energy   TEWEN  =    -21650.71376383
  -Hartree energ DENC   =     -5042.76962104
  -exchange      EXHF   =         0.00000000
  -V(xc)+E(xc)   XCENC  =       673.72302949
  PAW double counting   =     49419.55131237   -48508.56818033
  entropy T*S    EENTRO =         0.00030538
  eigenvalues    EBANDS =      1280.36527104
  atomic energy  EATOM  =     22461.85434800
  Solvation  Ediel_sol  =         0.00000000
  ---------------------------------------------------
  free energy    TOTEN  =      -516.71248613 eV

  energy without entropy =     -516.71279150  energy(sigma->0) =     -516.71258792


--------------------------------------------------------------------------------------------------------




--------------------------------------- Iteration      1(  13)  ---------------------------------------


    POTLOK:  cpu time      0.2725: real time      0.2747
    SETDIJ:  cpu time      0.0792: real time      0.0796
     EDDAV:  cpu time     41.9775: real time     42.3623
       DOS:  cpu time      0.0022: real time      0.0022
    CHARGE:  cpu time      1.3485: real time      1.3589
    MIXING:  cpu time      0.0142: real time      0.0143
    --------------------------------------------
      LOOP:  cpu time     43.6940: real time     44.0921

 eigenvalue-minimisations  :  4472
 total energy-change (2. order) : 0.1023274E-04  (-0.1489448E-04)
 number of electron     383.9999769 magnetization 
 augmentation part       33.9862967 magnetization 

 Broyden mixing:
  rms(total) = 0.15203E-02    rms(broyden)= 0.15200E-02
  rms(prec ) = 0.16973E-02
  weight for this iteration     100.00

 eigenvalues of (default mixing * dielectric matrix)
  average eigenvalue GAMMA=   1.5247
  2.7930  2.4430  1.8620  1.0383  1.0383  1.1032  1.1032  0.8167

 Free energy of the ion-electron system (eV)
  ---------------------------------------------------
  alpha Z        PSCENC =       849.84481279
  Ewald energy   TEWEN  =    -21650.71376383
  -Hartree energ DENC   =     -5042.76808248
  -exchange      EXHF   =         0.00000000
  -V(xc)+E(xc)   XCENC  =       673.72243127
  PAW double counting   =     49410.40239565   -48499.42205175
  entropy T*S    EENTRO =         0.00030484
  eigenvalues    EBANDS =      1280.36712962
  atomic energy  EATOM  =     22461.85434800
  Solvation  Ediel_sol  =         0.00000000
  ---------------------------------------------------
  free energy    TOTEN  =      -516.71247590 eV

  energy without entropy =     -516.71278073  energy(sigma->0) =     -516.71257751


--------------------------------------------------------------------------------------------------------




--------------------------------------- Iteration      1(  14)  ---------------------------------------


    POTLOK:  cpu time      0.2738: real time      0.2760
    SETDIJ:  cpu time      0.0793: real time      0.0797
     EDDAV:  cpu time     40.6594: real time     41.0315
       DOS:  cpu time      0.0022: real time      0.0022
    CHARGE:  cpu time      1.3243: real time      1.3360
    MIXING:  cpu time      0.0152: real time      0.0154
    --------------------------------------------
      LOOP:  cpu time     42.3541: real time     42.7407

 eigenvalue-minimisations  :  4304
 total energy-change (2. order) :-0.8253155E-06  (-0.2109235E-05)
 number of electron     383.9999769 magnetization 
 augmentation part       33.9867203 magnetization 

 Broyden mixing:
  rms(total) = 0.78751E-03    rms(broyden)= 0.78715E-03
  rms(prec ) = 0.81357E-03
  weight for this iteration     100.00

 eigenvalues of (default mixing * dielectric matrix)
  average eigenvalue GAMMA=   1.5210
  2.8403  2.4768  2.1920  0.9950  0.9950  1.1172  1.1172  0.9776  0.9776

 Free energy of the ion-electron system (eV)
  ---------------------------------------------------
  alpha Z        PSCENC =       849.84481279
  Ewald energy   TEWEN  =    -21650.71376383
  -Hartree energ DENC   =     -5042.70844695
  -exchange      EXHF   =         0.00000000
  -V(xc)+E(xc)   XCENC  =       673.71628729
  PAW double counting   =     49406.59237208   -48495.61143279
  entropy T*S    EENTRO =         0.00030479
  eigenvalues    EBANDS =      1280.31304189
  atomic energy  EATOM  =     22461.85434800
  Solvation  Ediel_sol  =         0.00000000
  ---------------------------------------------------
  free energy    TOTEN  =      -516.71247672 eV

  energy without entropy =     -516.71278151  energy(sigma->0) =     -516.71257832


--------------------------------------------------------------------------------------------------------




--------------------------------------- Iteration      1(  15)  ---------------------------------------


    POTLOK:  cpu time      0.2661: real time      0.2683
    SETDIJ:  cpu time      0.0793: real time      0.0810
     EDDAV:  cpu time     26.3965: real time     26.6376
       DOS:  cpu time      0.0023: real time      0.0023
    --------------------------------------------
      LOOP:  cpu time     26.7442: real time     26.9893

 eigenvalue-minimisations  :  2416
 total energy-change (2. order) :-0.1947883E-06  (-0.4964726E-07)
 number of electron     383.9999769 magnetization 
 augmentation part       33.9867203 magnetization 

 Free energy of the ion-electron system (eV)
  ---------------------------------------------------
  alpha Z        PSCENC =       849.84481279
  Ewald energy   TEWEN  =    -21650.71376383
  -Hartree energ DENC   =     -5042.70125207
  -exchange      EXHF   =         0.00000000
  -V(xc)+E(xc)   XCENC  =       673.71513500
  PAW double counting   =     49401.79899348   -48490.81728929
  entropy T*S    EENTRO =         0.00030480
  eigenvalues    EBANDS =      1280.30623419
  atomic energy  EATOM  =     22461.85434800
  Solvation  Ediel_sol  =         0.00000000
  ---------------------------------------------------
  free energy    TOTEN  =      -516.71247692 eV

  energy without entropy =     -516.71278172  energy(sigma->0) =     -516.71257852


--------------------------------------------------------------------------------------------------------




 average (electrostatic) potential at core
  the test charge radii are     1.0406  0.7215
  (the norm of the test charge is              1.0000)
       1 -65.8826       2 -65.8826       3 -65.8826       4 -65.8826       5 -65.8826
       6 -65.8826       7 -65.8826       8 -65.8826       9 -65.8826      10 -65.8826
      11 -65.8826      12 -65.8826      13 -65.8826      14 -65.8826      15 -65.8826
      16 -65.8826      17 -65.8826      18 -65.8826      19 -65.8826      20 -65.8826
      21 -65.8826      22 -65.8826      23 -65.8826      24 -65.8826      25 -65.8826
      26 -65.8826      27 -65.8826      28 -65.8826      29 -65.8826      30 -65.8826
      31 -65.8826      32 -65.8826      33 -62.8053      34 -62.8053      35 -62.8053
      36 -62.8053      37 -62.8053      38 -62.8053      39 -62.8053      40 -62.8053
      41 -62.8053      42 -62.8053      43 -62.8053      44 -62.8053      45 -62.8053
      46 -62.8053      47 -62.8053      48 -62.8053      49 -62.8053      50 -62.8053
      51 -62.8053      52 -62.8053      53 -62.8053      54 -62.8053      55 -62.8053
      56 -62.8053      57 -62.8053      58 -62.8053      59 -62.8053      60 -62.8053
      61 -62.8053      62 -62.8053      63 -62.8053      64 -62.8053      65 -62.5513
      66 -62.5513      67 -62.5513      68 -62.5513      69 -62.5513      70 -62.5513
      71 -62.5513      72 -62.5513      73 -62.5513      74 -62.5513      75 -62.5513
      76 -62.5513      77 -62.5513      78 -62.5513      79 -62.5513      80 -62.5513



 E-fermi :  10.9239     XC(G=0): -13.5230     alpha+bet :-23.5530

 Fermi energy:        10.9238809170

 k-point     1 :       0.1250    0.1250    0.1250
  band No.  band energies     occupation 
      1     -11.3564      2.00000
      2     -10.4473      2.00000
      3     -10.3997      2.00000
      4      -9.8890      2.00000
      5      -9.8186      2.00000
      6      -9.7648      2.00000
      7      -9.5850      2.00000
      8      -9.1089      2.00000
      9      -9.0824      2.00000
     10      -8.9766      2.00000
     11      -8.9681      2.00000
     12      -8.7210      2.00000
     13      -8.5566      2.00000
     14      -8.5001      2.00000
     15      -8.3825      2.00000
     16      -8.1255      2.00000
     17      -8.0663      2.00000
     18      -7.9037      2.00000
     19      -7.8841      2.00000
     20      -7.8526      2.00000
     21      -7.8397      2.00000
     22      -7.8311      2.00000
     23      -7.6864      2.00000
     24      -7.5909      2.00000
     25      -7.5651      2.00000
     26      -7.5395      2.00000
     27      -7.4522      2.00000
     28      -7.3430      2.00000
     29      -7.2504      2.00000
     30      -7.0800      2.00000
     31      -7.0693      2.00000
     32      -7.0552      2.00000
     33      -6.9174      2.00000
     34      -6.8728      2.00000
     35      -6.8022      2.00000
     36      -6.7981      2.00000
     37      -6.7919      2.00000
     38      -6.7765      2.00000
     39      -6.7477      2.00000
     40      -6.6875      2.00000
     41      -6.6014      2.00000
     42      -6.5932      2.00000
     43      -6.5689      2.00000
     44      -6.5060      2.00000
     45      -6.3697      2.00000
     46      -6.2901      2.00000
     47      -6.1618      2.00000
     48      -6.1566      2.00000
     49       2.4108      2.00000
     50       2.4222      2.00000
     51       2.4732      2.00000
     52       2.6019      2.00000
     53       2.6189      2.00000
     54       2.6468      2.00000
     55       2.7777      2.00000
     56       3.0900      2.00000
     57       3.0902      2.00000
     58       3.1175      2.00000
     59       3.1480      2.00000
     60       3.1922      2.00000
     61       3.2321      2.00000
     62       3.2963      2.00000
     63       3.3567      2.00000
     64       3.4067      2.00000
     65       3.4120      2.00000
     66       3.4127      2.00000
     67       3.4495      2.00000
     68       3.7170      2.00000
     69       3.7818      2.00000
     70       3.8157      2.00000
     71       3.9613      2.00000
     72       4.0422      2.00000
     73       4.1895      2.00000
     74       4.2378      2.00000
     75       4.2481      2.00000
     76       4.3522      2.00000
     77       4.3764      2.00000
     78       4.4405      2.00000
     79       4.5204      2.00000
     80       4.5538      2.00000
     81       4.6628      2.00000
     82       4.6778      2.00000
     83       4.6908      2.00000
     84       4.7540      2.00000
     85       4.7981      2.00000
     86       4.8728      2.00000
     87       4.9070      2.00000
     88       4.9880      2.00000
     89       5.0009      2.00000
     90       5.0569      2.00000
     91       5.1393      2.00000
     92       5.2760      2.00000
     93       5.3718      2.00000
     94       5.4358      2.00000
     95       5.5073      2.00000
     96       5.7104      2.00000
     97       5.8801      2.00000
     98       6.0925      2.00000
     99       6.1663      2.00000
    100       6.1677      2.00000
    101       6.1852      2.00000
    102       6.2375      2.00000
    103       6.2435      2.00000
    104       6.4394      2.00000
    105       6.4783      2.00000
    106       6.4794      2.00000
    107       6.7084      2.00000
    108       6.7419      2.00000
    109       6.8461      2.00000
    110       6.9419      2.00000
    111       6.9977      2.00000
    112       7.0085      2.00000
    113       7.0674      2.00000
    114       7.1401      2.00000
    115       7.1826      2.00000
    116       7.1883      2.00000
    117       7.2184      2.00000
    118       7.3010      2.00000
    119       7.3011      2.00000
    120       7.4374      2.00000
    121       7.4740      2.00000
    122       7.5434      2.00000
    123       7.5815      2.00000
    124       7.6300      2.00000
    125       7.6326      2.00000
    126       7.6517      2.00000
    127       7.7718      2.00000
    128       7.7783      2.00000
    129       7.9010      2.00000
    130       8.0297      2.00000
    131       8.0431      2.00000
    132       8.1018      2.00000
    133       8.2453      2.00000
    134       8.2468      2.00000
    135       8.4023      2.00000
    136       8.4252      2.00000
    137       8.4292      2.00000
    138       8.4648      2.00000
    139       8.5060      2.00000
    140       8.6162      2.00000
    141       8.6273      2.00000
    142       8.6286      2.00000
    143       8.6665      2.00000
    144       8.6690      2.00000
    145       8.6938      2.00000
    146       8.7226      2.00000
    147       8.7866      2.00000
    148       8.7922      2.00000
    149       8.8509      2.00000
    150       8.8938      2.00000
    151       9.0230      2.00000
    152       9.0264      2.00000
    153       9.0301      2.00000
    154       9.1109      2.00000
    155       9.1122      2.00000
    156       9.1228      2.00000
    157       9.2338      2.00000
    158       9.2513      2.00000
    159       9.3566      2.00000
[...]
     0.000000000  8.893368479  0.000000000     0.000000000  0.112443334  0.000000000
     0.000000000  0.000000000  6.320681435     0.000000000  0.000000000  0.158210790

  length of vectors
     8.647614381  8.893368479  6.320681435     0.115638829  0.112443334  0.158210790


 FORCES acting on ions
    electron-ion (+dipol)            ewald-force                    non-local-force                 convergence-correction
 -----------------------------------------------------------------------------------------------
   0.430E+01 -.374E+01 0.203E+02   -.406E+01 0.870E+00 -.194E+02   -.283E+00 0.387E+01 -.152E+01   0.116E-03 -.180E-04 0.128E-03
   0.430E+01 -.374E+01 0.203E+02   -.406E+01 0.870E+00 -.194E+02   -.283E+00 0.387E+01 -.152E+01   0.116E-03 -.151E-04 0.128E-03
   0.430E+01 -.374E+01 0.203E+02   -.406E+01 0.870E+00 -.194E+02   -.283E+00 0.387E+01 -.152E+01   0.115E-03 -.180E-04 0.128E-03
   0.430E+01 -.374E+01 0.203E+02   -.406E+01 0.870E+00 -.194E+02   -.283E+00 0.387E+01 -.152E+01   0.115E-03 -.151E-04 0.127E-03
   0.430E+01 0.374E+01 -.203E+02   -.406E+01 -.870E+00 0.194E+02   -.283E+00 -.387E+01 0.152E+01   0.116E-03 0.166E-04 -.127E-03
   0.430E+01 0.374E+01 -.203E+02   -.406E+01 -.870E+00 0.194E+02   -.283E+00 -.387E+01 0.152E+01   0.116E-03 0.165E-04 -.127E-03
   0.430E+01 0.374E+01 -.203E+02   -.406E+01 -.870E+00 0.194E+02   -.283E+00 -.387E+01 0.152E+01   0.115E-03 0.166E-04 -.127E-03
   0.430E+01 0.374E+01 -.203E+02   -.406E+01 -.870E+00 0.194E+02   -.283E+00 -.387E+01 0.152E+01   0.115E-03 0.165E-04 -.127E-03
   -.430E+01 -.374E+01 -.203E+02   0.406E+01 0.870E+00 0.194E+02   0.283E+00 0.387E+01 0.152E+01   -.115E-03 -.161E-04 -.128E-03
   -.430E+01 -.374E+01 -.203E+02   0.406E+01 0.870E+00 0.194E+02   0.283E+00 0.387E+01 0.152E+01   -.115E-03 -.169E-04 -.128E-03
   -.430E+01 -.374E+01 -.203E+02   0.406E+01 0.870E+00 0.194E+02   0.283E+00 0.387E+01 0.152E+01   -.116E-03 -.161E-04 -.128E-03
   -.430E+01 -.374E+01 -.203E+02   0.406E+01 0.870E+00 0.194E+02   0.283E+00 0.387E+01 0.152E+01   -.116E-03 -.170E-04 -.128E-03
   -.430E+01 0.374E+01 0.203E+02   0.406E+01 -.870E+00 -.194E+02   0.283E+00 -.387E+01 -.152E+01   -.115E-03 0.180E-04 0.127E-03
   -.430E+01 0.374E+01 0.203E+02   0.406E+01 -.870E+00 -.194E+02   0.283E+00 -.387E+01 -.152E+01   -.115E-03 0.151E-04 0.127E-03
   -.430E+01 0.374E+01 0.203E+02   0.406E+01 -.870E+00 -.194E+02   0.283E+00 -.387E+01 -.152E+01   -.116E-03 0.180E-04 0.127E-03
   -.430E+01 0.374E+01 0.203E+02   0.406E+01 -.870E+00 -.194E+02   0.283E+00 -.387E+01 -.152E+01   -.116E-03 0.151E-04 0.127E-03
   -.430E+01 0.374E+01 -.203E+02   0.406E+01 -.870E+00 0.194E+02   0.283E+00 -.387E+01 0.152E+01   -.116E-03 0.180E-04 -.127E-03
   -.430E+01 0.374E+01 -.203E+02   0.406E+01 -.870E+00 0.194E+02   0.283E+00 -.387E+01 0.152E+01   -.116E-03 0.151E-04 -.127E-03
   -.430E+01 0.374E+01 -.203E+02   0.406E+01 -.870E+00 0.194E+02   0.283E+00 -.387E+01 0.152E+01   -.116E-03 0.180E-04 -.127E-03
   -.430E+01 0.374E+01 -.203E+02   0.406E+01 -.870E+00 0.194E+02   0.283E+00 -.387E+01 0.152E+01   -.116E-03 0.151E-04 -.127E-03
   -.430E+01 -.374E+01 0.203E+02   0.406E+01 0.870E+00 -.194E+02   0.283E+00 0.387E+01 -.152E+01   -.116E-03 -.161E-04 0.128E-03
   -.430E+01 -.374E+01 0.203E+02   0.406E+01 0.870E+00 -.194E+02   0.283E+00 0.387E+01 -.152E+01   -.116E-03 -.170E-04 0.128E-03
   -.430E+01 -.374E+01 0.203E+02   0.406E+01 0.870E+00 -.194E+02   0.283E+00 0.387E+01 -.152E+01   -.116E-03 -.161E-04 0.128E-03
   -.430E+01 -.374E+01 0.203E+02   0.406E+01 0.870E+00 -.194E+02   0.283E+00 0.387E+01 -.152E+01   -.116E-03 -.170E-04 0.128E-03
   0.430E+01 0.374E+01 0.203E+02   -.406E+01 -.870E+00 -.194E+02   -.283E+00 -.387E+01 -.152E+01   0.116E-03 0.166E-04 0.127E-03
   0.430E+01 0.374E+01 0.203E+02   -.406E+01 -.870E+00 -.194E+02   -.283E+00 -.387E+01 -.152E+01   0.116E-03 0.165E-04 0.127E-03
   0.430E+01 0.374E+01 0.203E+02   -.406E+01 -.870E+00 -.194E+02   -.283E+00 -.387E+01 -.152E+01   0.116E-03 0.166E-04 0.127E-03
   0.430E+01 0.374E+01 0.203E+02   -.406E+01 -.870E+00 -.194E+02   -.283E+00 -.387E+01 -.152E+01   0.116E-03 0.165E-04 0.127E-03
   0.430E+01 -.374E+01 -.203E+02   -.406E+01 0.870E+00 0.194E+02   -.283E+00 0.387E+01 0.152E+01   0.116E-03 -.180E-04 -.128E-03
   0.430E+01 -.374E+01 -.203E+02   -.406E+01 0.870E+00 0.194E+02   -.283E+00 0.387E+01 0.152E+01   0.116E-03 -.151E-04 -.128E-03
   0.430E+01 -.374E+01 -.203E+02   -.406E+01 0.870E+00 0.194E+02   -.283E+00 0.387E+01 0.152E+01   0.116E-03 -.180E-04 -.128E-03
   0.430E+01 -.374E+01 -.203E+02   -.406E+01 0.870E+00 0.194E+02   -.283E+00 0.387E+01 0.152E+01   0.116E-03 -.151E-04 -.128E-03
   0.826E+01 0.407E+01 -.222E+02   -.674E+01 -.320E+01 0.240E+02   -.121E+01 -.594E+00 -.137E+01   -.308E-04 0.551E-04 -.698E-03
   0.826E+01 0.406E+01 -.222E+02   -.674E+01 -.320E+01 0.240E+02   -.121E+01 -.594E+00 -.137E+01   -.308E-04 0.614E-04 -.699E-03
   0.826E+01 0.407E+01 -.222E+02   -.674E+01 -.320E+01 0.240E+02   -.121E+01 -.594E+00 -.137E+01   -.339E-04 0.551E-04 -.698E-03
   0.826E+01 0.406E+01 -.222E+02   -.674E+01 -.320E+01 0.240E+02   -.121E+01 -.594E+00 -.137E+01   -.339E-04 0.614E-04 -.698E-03
   0.826E+01 -.407E+01 0.222E+02   -.674E+01 0.320E+01 -.240E+02   -.121E+01 0.594E+00 0.137E+01   -.308E-04 -.587E-04 0.699E-03
   0.826E+01 -.407E+01 0.222E+02   -.674E+01 0.320E+01 -.240E+02   -.121E+01 0.594E+00 0.137E+01   -.308E-04 -.578E-04 0.699E-03
   0.826E+01 -.407E+01 0.222E+02   -.674E+01 0.320E+01 -.240E+02   -.121E+01 0.594E+00 0.137E+01   -.339E-04 -.587E-04 0.699E-03
   0.826E+01 -.407E+01 0.222E+02   -.674E+01 0.320E+01 -.240E+02   -.121E+01 0.594E+00 0.137E+01   -.339E-04 -.578E-04 0.699E-03
   -.826E+01 0.407E+01 0.222E+02   0.674E+01 -.320E+01 -.240E+02   0.121E+01 -.594E+00 0.137E+01   0.340E-04 0.597E-04 0.699E-03
   -.826E+01 0.406E+01 0.222E+02   0.674E+01 -.320E+01 -.240E+02   0.121E+01 -.594E+00 0.137E+01   0.340E-04 0.568E-04 0.699E-03
   -.826E+01 0.407E+01 0.222E+02   0.674E+01 -.320E+01 -.240E+02   0.121E+01 -.594E+00 0.137E+01   0.305E-04 0.597E-04 0.699E-03
   -.826E+01 0.406E+01 0.222E+02   0.674E+01 -.320E+01 -.240E+02   0.121E+01 -.594E+00 0.137E+01   0.306E-04 0.568E-04 0.699E-03
   -.826E+01 -.407E+01 -.222E+02   0.674E+01 0.320E+01 0.240E+02   0.121E+01 0.594E+00 -.137E+01   0.340E-04 -.547E-04 -.700E-03
   -.826E+01 -.407E+01 -.222E+02   0.674E+01 0.320E+01 0.240E+02   0.121E+01 0.594E+00 -.137E+01   0.339E-04 -.618E-04 -.700E-03
   -.826E+01 -.407E+01 -.222E+02   0.674E+01 0.320E+01 0.240E+02   0.121E+01 0.594E+00 -.137E+01   0.305E-04 -.547E-04 -.700E-03
   -.826E+01 -.407E+01 -.222E+02   0.674E+01 0.320E+01 0.240E+02   0.121E+01 0.594E+00 -.137E+01   0.305E-04 -.618E-04 -.700E-03
   -.826E+01 -.407E+01 0.222E+02   0.674E+01 0.320E+01 -.240E+02   0.121E+01 0.594E+00 0.137E+01   0.318E-04 -.547E-04 0.699E-03
   -.826E+01 -.407E+01 0.222E+02   0.674E+01 0.320E+01 -.240E+02   0.121E+01 0.594E+00 0.137E+01   0.317E-04 -.618E-04 0.699E-03
   -.826E+01 -.407E+01 0.222E+02   0.674E+01 0.320E+01 -.240E+02   0.121E+01 0.594E+00 0.137E+01   0.331E-04 -.547E-04 0.699E-03
   -.826E+01 -.407E+01 0.222E+02   0.674E+01 0.320E+01 -.240E+02   0.121E+01 0.594E+00 0.137E+01   0.331E-04 -.618E-04 0.700E-03
   -.826E+01 0.407E+01 -.222E+02   0.674E+01 -.320E+01 0.240E+02   0.121E+01 -.594E+00 -.137E+01   0.317E-04 0.597E-04 -.698E-03
   -.826E+01 0.406E+01 -.222E+02   0.674E+01 -.320E+01 0.240E+02   0.121E+01 -.594E+00 -.137E+01   0.317E-04 0.568E-04 -.698E-03
   -.826E+01 0.407E+01 -.222E+02   0.674E+01 -.320E+01 0.240E+02   0.121E+01 -.594E+00 -.137E+01   0.331E-04 0.597E-04 -.698E-03
   -.826E+01 0.406E+01 -.222E+02   0.674E+01 -.320E+01 0.240E+02   0.121E+01 -.594E+00 -.137E+01   0.331E-04 0.568E-04 -.698E-03
   0.826E+01 -.407E+01 -.222E+02   -.674E+01 0.320E+01 0.240E+02   -.121E+01 0.594E+00 -.137E+01   -.314E-04 -.587E-04 -.700E-03
   0.826E+01 -.407E+01 -.222E+02   -.674E+01 0.320E+01 0.240E+02   -.121E+01 0.594E+00 -.137E+01   -.314E-04 -.578E-04 -.700E-03
   0.826E+01 -.407E+01 -.222E+02   -.674E+01 0.320E+01 0.240E+02   -.121E+01 0.594E+00 -.137E+01   -.333E-04 -.587E-04 -.700E-03
   0.826E+01 -.407E+01 -.222E+02   -.674E+01 0.320E+01 0.240E+02   -.121E+01 0.594E+00 -.137E+01   -.333E-04 -.578E-04 -.700E-03
   0.826E+01 0.407E+01 0.222E+02   -.674E+01 -.320E+01 -.240E+02   -.121E+01 -.594E+00 0.137E+01   -.314E-04 0.551E-04 0.699E-03
   0.826E+01 0.406E+01 0.222E+02   -.674E+01 -.320E+01 -.240E+02   -.121E+01 -.594E+00 0.137E+01   -.314E-04 0.614E-04 0.699E-03
   0.826E+01 0.407E+01 0.222E+02   -.674E+01 -.320E+01 -.240E+02   -.121E+01 -.594E+00 0.137E+01   -.333E-04 0.551E-04 0.699E-03
   0.826E+01 0.406E+01 0.222E+02   -.674E+01 -.320E+01 -.240E+02   -.121E+01 -.594E+00 0.137E+01   -.333E-04 0.614E-04 0.699E-03
   -.243E+02 -.379E-04 -.185E-04   0.259E+02 0.143E-04 0.489E-04   -.108E+01 -.906E-19 -.129E-18   -.279E-03 -.208E-05 -.102E-05
   -.243E+02 -.352E-04 -.132E-04   0.259E+02 -.512E-05 0.582E-05   -.108E+01 -.120E-18 -.402E-18   -.279E-03 0.208E-05 -.553E-06
   -.243E+02 -.379E-04 -.185E-04   0.259E+02 0.143E-04 0.489E-04   -.108E+01 -.517E-20 -.730E-19   -.281E-03 -.208E-05 -.102E-05
   -.243E+02 -.352E-04 -.132E-04   0.259E+02 -.512E-05 0.582E-05   -.108E+01 -.149E-18 -.244E-18   -.281E-03 0.208E-05 -.553E-06
   0.243E+02 -.362E-04 -.509E-04   -.259E+02 -.173E-05 -.227E-04   0.108E+01 0.127E-18 0.223E-18   0.282E-03 0.284E-05 0.582E-06
   0.243E+02 -.384E-04 -.455E-04   -.259E+02 0.188E-04 -.519E-04   0.108E+01 0.808E-19 0.293E-18   0.282E-03 -.284E-05 0.101E-05
   0.243E+02 -.362E-04 -.509E-04   -.259E+02 -.173E-05 -.227E-04   0.108E+01 0.113E-18 0.218E-18   0.279E-03 0.284E-05 0.582E-06
   0.243E+02 -.384E-04 -.455E-04   -.259E+02 0.188E-04 -.519E-04   0.108E+01 0.218E-18 0.169E-18   0.279E-03 -.284E-05 0.101E-05
   0.243E+02 -.357E-04 -.630E-04   -.259E+02 -.476E-05 0.143E-04   0.108E+01 0.197E-18 -.249E-18   0.279E-03 0.284E-05 -.574E-06
   0.243E+02 -.380E-04 -.684E-04   -.259E+02 0.158E-04 0.435E-04   0.108E+01 0.122E-18 -.248E-18   0.280E-03 -.284E-05 -.100E-05
   0.243E+02 -.357E-04 -.630E-04   -.259E+02 -.476E-05 0.143E-04   0.108E+01 0.118E-18 -.879E-19   0.281E-03 0.284E-05 -.574E-06
   0.243E+02 -.380E-04 -.684E-04   -.259E+02 0.158E-04 0.435E-04   0.108E+01 0.124E-18 -.250E-18   0.281E-03 -.284E-05 -.100E-05
   -.243E+02 -.392E-04 0.439E-05   0.259E+02 0.173E-04 -.573E-04   -.108E+01 -.125E-18 0.272E-18   -.279E-03 -.208E-05 0.103E-05
   -.243E+02 -.364E-04 -.931E-06   0.259E+02 -.209E-05 -.142E-04   -.108E+01 0.293E-19 0.239E-18   -.279E-03 0.208E-05 0.560E-06
   -.243E+02 -.392E-04 0.439E-05   0.259E+02 0.173E-04 -.573E-04   -.108E+01 -.544E-19 0.223E-18   -.281E-03 -.208E-05 0.103E-05
   -.243E+02 -.364E-04 -.931E-06   0.259E+02 -.209E-05 -.142E-04   -.108E+01 -.252E-20 0.139E-18   -.281E-03 0.208E-05 0.560E-06
 -----------------------------------------------------------------------------------------------
   0.428E-02 -.197E-02 -.697E-03   0.711E-13 -.859E-13 0.843E-13   -.888E-15 0.133E-14 -.155E-14   0.891E-07 -.262E-07 0.902E-09


 POSITION                                       TOTAL-FORCE (eV/Angst)
 -----------------------------------------------------------------------------------
      1.09090      0.13960      2.46499        -0.043873      1.001094     -0.687577
      1.09090      4.58629      2.46499        -0.043873      1.001094     -0.687577
      5.41471      0.13960      2.46499        -0.043873      1.001094     -0.687577
      5.41471      4.58629      2.46499        -0.043873      1.001094     -0.687577
      1.09090      2.08374      3.85569        -0.043873     -1.001094      0.687577
      1.09090      6.53043      3.85569        -0.043873     -1.001094      0.687577
      5.41471      2.08374      3.85569        -0.043873     -1.001094      0.687577
      5.41471      6.53043      3.85569        -0.043873     -1.001094      0.687577
      1.07100      2.36294      0.69535         0.043873      1.001094      0.687577
      1.07100      6.80963      0.69535         0.043873      1.001094      0.687577
      5.39481      2.36294      0.69535         0.043873      1.001094      0.687577
      5.39481      6.80963      0.69535         0.043873      1.001094      0.687577
      1.07100      4.30708      5.62533         0.043873     -1.001094     -0.687577
      1.07100      8.75377      5.62533         0.043873     -1.001094     -0.687577
      5.39481      4.30708      5.62533         0.043873     -1.001094     -0.687577
      5.39481      8.75377      5.62533         0.043873     -1.001094     -0.687577
      3.23291      4.30708      3.85569         0.043873     -1.001094      0.687577
      3.23291      8.75377      3.85569         0.043873     -1.001094      0.687577
      7.55671      4.30708      3.85569         0.043873     -1.001094      0.687577
      7.55671      8.75377      3.85569         0.043873     -1.001094      0.687577
      3.23291      2.36294      2.46499         0.043873      1.001094     -0.687577
      3.23291      6.80963      2.46499         0.043873      1.001094     -0.687577
      7.55671      2.36294      2.46499         0.043873      1.001094     -0.687577
      7.55671      6.80963      2.46499         0.043873      1.001094     -0.687577
      3.25280      2.08374      5.62533        -0.043873     -1.001094     -0.687577
      3.25280      6.53043      5.62533        -0.043873     -1.001094     -0.687577
      7.57661      2.08374      5.62533        -0.043873     -1.001094     -0.687577
      7.57661      6.53043      5.62533        -0.043873     -1.001094     -0.687577
      3.25280      0.13960      0.69535        -0.043873      1.001094      0.687577
      3.25280      4.58629      0.69535        -0.043873      1.001094      0.687577
      7.57661      0.13960      0.69535        -0.043873      1.001094      0.687577
      7.57661      4.58629      0.69535        -0.043873      1.001094      0.687577
      0.46296      0.45530      4.13466         0.310085      0.268498      0.417861
      0.46296      4.90198      4.13466         0.310085      0.268498      0.417861
      4.78677      0.45530      4.13466         0.310085      0.268498      0.417861
      4.78677      4.90198      4.13466         0.310085      0.268498      0.417861
      0.46296      1.76804      2.18602         0.310085     -0.268498     -0.417861
      0.46296      6.21473      2.18602         0.310085     -0.268498     -0.417861
      4.78677      1.76804      2.18602         0.310085     -0.268498     -0.417861
      4.78677      6.21473      2.18602         0.310085     -0.268498     -0.417861
      1.69894      2.67864      5.34636        -0.310085      0.268498     -0.417861
      1.69894      7.12533      5.34636        -0.310085      0.268498     -0.417861
      6.02275      2.67864      5.34636        -0.310085      0.268498     -0.417861
      6.02275      7.12533      5.34636        -0.310085      0.268498     -0.417861
      1.69894      3.99138      0.97432        -0.310085     -0.268498      0.417861
      1.69894      8.43807      0.97432        -0.310085     -0.268498      0.417861
      6.02275      3.99138      0.97432        -0.310085     -0.268498      0.417861
      6.02275      8.43807      0.97432        -0.310085     -0.268498      0.417861
      3.86085      3.99138      2.18602        -0.310085     -0.268498     -0.417861
      3.86085      8.43807      2.18602        -0.310085     -0.268498     -0.417861
      8.18465      3.99138      2.18602        -0.310085     -0.268498     -0.417861
      8.18465      8.43807      2.18602        -0.310085     -0.268498     -0.417861
      3.86085      2.67864      4.13466        -0.310085      0.268498      0.417861
      3.86085      7.12533      4.13466        -0.310085      0.268498      0.417861
      8.18465      2.67864      4.13466        -0.310085      0.268498      0.417861
      8.18465      7.12533      4.13466        -0.310085      0.268498      0.417861
      2.62486      1.76804      0.97432         0.310085     -0.268498      0.417861
      2.62486      6.21473      0.97432         0.310085     -0.268498      0.417861
      6.94867      1.76804      0.97432         0.310085     -0.268498      0.417861
      6.94867      6.21473      0.97432         0.310085     -0.268498      0.417861
      2.62486      0.45530      5.34636         0.310085      0.268498     -0.417861
      2.62486      4.90198      5.34636         0.310085      0.268498     -0.417861
      6.94867      0.45530      5.34636         0.310085      0.268498     -0.417861
      6.94867      4.90198      5.34636         0.310085      0.268498     -0.417861
      0.21700      1.11167      0.00000         0.474765     -0.000000     -0.000000
      0.21700      5.55836      0.00000         0.474765     -0.000000     -0.000000
      4.54081      1.11167      0.00000         0.474765     -0.000000     -0.000000
      4.54081      5.55836      0.00000         0.474765     -0.000000     -0.000000
      1.94490      3.33501      3.16034        -0.474765     -0.000000     -0.000000
      1.94490      7.78170      3.16034        -0.474765     -0.000000     -0.000000
      6.26871      3.33501      3.16034        -0.474765     -0.000000     -0.000000
      6.26871      7.78170      3.16034        -0.474765     -0.000000     -0.000000
      4.10680      3.33501      0.00000        -0.474765     -0.000000     -0.000000
      4.10680      7.78170      0.00000        -0.474765     -0.000000     -0.000000
      8.43061      3.33501      0.00000        -0.474765     -0.000000     -0.000000
      8.43061      7.78170      0.00000        -0.474765     -0.000000     -0.000000
      2.37891      1.11167      3.16034         0.474765     -0.000000     -0.000000
      2.37891      5.55836      3.16034         0.474765     -0.000000     -0.000000
      6.70271      1.11167      3.16034         0.474765     -0.000000     -0.000000
      6.70271      5.55836      3.16034         0.474765     -0.000000     -0.000000
 -----------------------------------------------------------------------------------
    total drift:                                0.004278     -0.001972     -0.000697


--------------------------------------------------------------------------------------------------------



  FREE ENERGIE OF THE ION-ELECTRON SYSTEM (eV)
  ---------------------------------------------------
  free  energy   TOTEN  =      -516.71247692 eV

  energy  without entropy=     -516.71278172  energy(sigma->0) =     -516.71257852



--------------------------------------------------------------------------------------------------------


    POTLOK:  cpu time      0.2881: real time      0.2898


--------------------------------------------------------------------------------------------------------


 writing wavefunctions
     LOOP+:  cpu time    659.8892: real time    665.8938
    4ORBIT:  cpu time      0.0000: real time      0.0000

 total amount of memory used by VASP MPI-rank0   372505. kBytes
=======================================================================

   base      :      30000. kBytes
   nonlr-proj:       9041. kBytes
   fftplans  :      18120. kBytes
   grid      :      32159. kBytes
   one-center:        245. kBytes
   wavefun   :     282940. kBytes

  
  
 General timing and accounting informations for this job:
 ========================================================
  
                  Total CPU time used (sec):      667.848
                            User time (sec):      663.819
                          System time (sec):        4.029
                         Elapsed time (sec):      673.820
  
                   Maximum memory used (kb):      537776.
                   Average memory used (kb):          N/A
  
                          Minor page faults:      1594991
                          Major page faults:            9
                 Voluntary context switches:          728
