 vasp.6.3.0 20Jan22 (build Jul  1 2024 12:21:46) complex                         
 executed on             LinuxGNU date 2024.10.21  14:06:52
 running    1 mpi-ranks, with    1 threads/rank
 distrk:  each k-point on    1 cores,    1 groups
 distr:  one band on NCORE=   1 cores,    1 groups


--------------------------------------------------------------------------------------------------------


 INCAR:
   SYSTEM = Alumina_orthorombic_cell_under_strain
   ISTART = 0
   ICHARG = 2
   ENCUT = 400
   ALGO = Normal
   PREC = Normal
   ISPIN = 1
   LWAVE = T             (Write WAVECAR)
   LCHARG = T             (Write CHGCAR)
   NPAR = 1
   EDIFF = 1E-6
   NSW = 0
   NELM = 100
   POTIM = 0.5
   IBRION = -1
   ISMEAR = 1
   SIGMA = 0.026
   EDIFFG = -0.001
   ISIF = 2
   LREAL = Auto

 POTCAR:    PAW_PBE Al 04Jan2001                  
 POTCAR:    PAW_PBE O 08Apr2002                   
 POTCAR:    PAW_PBE Al 04Jan2001                  
   SHA256 =  17880443556af62b473fe41b62a467bd001ad55d2cabe504a3f22e34d4e9db96 Al/POTCAR             
   COPYR  = (c) Copyright 04Jan2001 Georg Kresse                                                    
   COPYR  = This file is part of the software VASP. Any use, copying, and all other rights are regul
   COPYR  = If you do not have a valid VASP license, you may not use, copy or distribute this file. 
   VRHFIN =Al: s2p1                                                                                 
   LEXCH  = PE                                                                                      
   EATOM  =    53.5387 eV,    3.9350 Ry                                                             
                                                                                                    
   TITEL  = PAW_PBE Al 04Jan2001                                                                    
   LULTRA =        F    use ultrasoft PP ?                                                          
   IUNSCR =        1    unscreen: 0-lin 1-nonlin 2-no                                               
   RPACOR =    1.500    partial core radius                                                         
   POMASS =   26.981; ZVAL   =    3.000    mass and valenz                                          
   RCORE  =    1.900    outmost cutoff radius                                                       
   RWIGS  =    2.650; RWIGS  =    1.402    wigner-seitz radius (au A)                               
   ENMAX  =  240.300; ENMIN  =  180.225 eV                                                          
   ICORE  =        2    local potential                                                             
   LCOR   =        T    correct aug charges                                                         
   LPAW   =        T    paw PP                                                                      
   EAUG   =  291.052                                                                                
   DEXC   =    0.000                                                                                
   RMAX   =    1.939    core radius for proj-oper                                                   
   RAUG   =    1.300    factor for augmentation sphere                                              
   RDEP   =    1.966    radius for radial grids                                                     
   RDEPT  =    1.856    core radius for aug-charge                                                  
                                                                                                    
   Atomic configuration                                                                             
    6 entries                                                                                       
     n  l   j            E        occ.                                                              
     1  0  0.50     -1511.1048   2.0000                                                             
     2  0  0.50      -108.1629   2.0000                                                             
     2  1  1.50       -69.6402   6.0000                                                             
     3  0  0.50        -7.7528   2.0000                                                             
     3  1  1.50        -2.7121   1.0000                                                             
     3  2  2.50        -2.7212   0.0000                                                             
   Description                                                                                      
     l       E           TYP  RCUT    TYP  RCUT                                                     
     0     -7.7528455     23  1.900                                                                 
     0     -3.3096929     23  1.900                                                                 
     1     -2.7120682     23  1.900                                                                 
     1     13.6058260     23  1.900                                                                 
     2     -2.7211652      7  1.900                                                                 
  local pseudopotential read in
  partial core-charges read in
  partial kinetic energy density read in
  atomic valenz-charges read in
  non local Contribution for L=           0  read in
    real space projection operators read in
  non local Contribution for L=           0  read in
    real space projection operators read in
  non local Contribution for L=           1  read in
    real space projection operators read in
  non local Contribution for L=           1  read in
    real space projection operators read in
    PAW grid and wavefunctions read in

   number of l-projection  operators is LMAX  =           4
   number of lm-projection operators is LMMAX =           8

 POTCAR:    PAW_PBE O 08Apr2002                   
   SHA256 =  818f92134a0a090dccd8ba1447fa70422a3b330e708bb4f08108d8ae51209ddf O/POTCAR              
   COPYR  = (c) Copyright 08Apr2002 Georg Kresse                                                    
   COPYR  = This file is part of the software VASP. Any use, copying, and all other rights are regul
   COPYR  = If you do not have a valid VASP license, you may not use, copy or distribute this file. 
   VRHFIN =O: s2p4                                                                                  
   LEXCH  = PE                                                                                      
   EATOM  =   432.3788 eV,   31.7789 Ry                                                             
                                                                                                    
   TITEL  = PAW_PBE O 08Apr2002                                                                     
   LULTRA =        F    use ultrasoft PP ?                                                          
   IUNSCR =        1    unscreen: 0-lin 1-nonlin 2-no                                               
   RPACOR =    1.200    partial core radius                                                         
   POMASS =   16.000; ZVAL   =    6.000    mass and valenz                                          
   RCORE  =    1.520    outmost cutoff radius                                                       
   RWIGS  =    1.550; RWIGS  =    0.820    wigner-seitz radius (au A)                               
   ENMAX  =  400.000; ENMIN  =  300.000 eV                                                          
   ICORE  =        2    local potential                                                             
   LCOR   =        T    correct aug charges                                                         
   LPAW   =        T    paw PP                                                                      
   EAUG   =  605.392                                                                                
   DEXC   =    0.000                                                                                
   RMAX   =    1.553    core radius for proj-oper                                                   
   RAUG   =    1.300    factor for augmentation sphere                                              
   RDEP   =    1.550    radius for radial grids                                                     
   RDEPT  =    1.329    core radius for aug-charge                                                  
                                                                                                    
   Atomic configuration                                                                             
    4 entries                                                                                       
     n  l   j            E        occ.                                                              
     1  0  0.50      -514.6923   2.0000                                                             
     2  0  0.50       -23.9615   2.0000                                                             
     2  1  0.50        -9.0305   4.0000                                                             
     3  2  1.50        -9.5241   0.0000                                                             
   Description                                                                                      
     l       E           TYP  RCUT    TYP  RCUT                                                     
     0    -23.9615318     23  1.200                                                                 
     0     -9.5240782     23  1.200                                                                 
     1     -9.0304911     23  1.520                                                                 
     1      8.1634956     23  1.520                                                                 
     2     -9.5240782      7  1.500                                                                 
  local pseudopotential read in
  partial core-charges read in
  partial kinetic energy density read in
  kinetic energy density of atom read in
  atomic valenz-charges read in
  non local Contribution for L=           0  read in
    real space projection operators read in
  non local Contribution for L=           0  read in
    real space projection operators read in
  non local Contribution for L=           1  read in
    real space projection operators read in
  non local Contribution for L=           1  read in
    real space projection operators read in
    PAW grid and wavefunctions read in

   number of l-projection  operators is LMAX  =           4
   number of lm-projection operators is LMMAX =           8

 Optimization of the real space projectors (new method)

 maximal supplied QI-value         = 19.84
 optimisation between [QCUT,QGAM] = [ 10.12, 20.44] = [ 28.68,116.96] Ry 
 Optimized for a Real-space Cutoff    1.23 Angstroem

   l    n(q)    QCUT    max X(q) W(low)/X(q) W(high)/X(q)  e(spline) 
   0      7    10.119   176.870    0.49E-04    0.18E-03    0.39E-07
   0      7    10.119   105.762    0.46E-04    0.18E-03    0.38E-07
   1      7    10.119    55.370    0.30E-03    0.37E-03    0.12E-06
   1      7    10.119    20.208    0.27E-03    0.35E-03    0.11E-06
 Optimization of the real space projectors (new method)

 maximal supplied QI-value         = 24.76
 optimisation between [QCUT,QGAM] = [ 10.15, 20.30] = [ 28.85,115.39] Ry 
 Optimized for a Real-space Cutoff    1.38 Angstroem

   l    n(q)    QCUT    max X(q) W(low)/X(q) W(high)/X(q)  e(spline) 
   0      8    10.150    20.381    0.22E-03    0.32E-03    0.29E-06
   0      8    10.150    15.268    0.23E-03    0.35E-03    0.30E-06
   1      8    10.150     5.964    0.46E-03    0.53E-03    0.21E-06
   1      8    10.150     5.382    0.38E-03    0.45E-03    0.19E-06
  PAW_PBE Al 04Jan2001                  :
 energy of atom  1       EATOM=  -53.5387
 kinetic energy error for atom=    0.0005 (will be added to EATOM!!)
  PAW_PBE O 08Apr2002                   :
 energy of atom  2       EATOM= -432.3788
 kinetic energy error for atom=    0.1156 (will be added to EATOM!!)


 POSCAR:    Al  O
  positions in direct lattice
  No initial velocities read in
 exchange correlation table for  LEXCH =        8
   RHO(1)=    0.500       N(1)  =     2000
   RHO(2)=  100.500       N(2)  =     4000



--------------------------------------------------------------------------------------------------------


 ion  position               nearest neighbor table
   1  0.126  0.016  0.390-  70 2.04  52 2.06  46 2.10  77 2.15  37 2.16  33 2.21   5 2.92  18 3.14
                            20 3.18
   2  0.126  0.516  0.390-  69 2.04  51 2.06  45 2.10  78 2.15  38 2.16  34 2.21   6 2.92  17 3.14
                            19 3.18
   3  0.626  0.016  0.390-  72 2.04  50 2.06  48 2.10  79 2.15  39 2.16  35 2.21   7 2.92  20 3.14
                            18 3.18
   4  0.626  0.516  0.390-  71 2.04  49 2.06  47 2.10  80 2.15  40 2.16  36 2.21   8 2.92  19 3.14
                            17 3.18
   5  0.126  0.234  0.610-  69 2.04  55 2.06  41 2.10  77 2.15  33 2.16  37 2.21   1 2.92  21 3.14
                            23 3.18
   6  0.126  0.734  0.610-  70 2.04  56 2.06  42 2.10  78 2.15  34 2.16  38 2.21   2 2.92  22 3.14
                            24 3.18
   7  0.626  0.234  0.610-  71 2.04  53 2.06  43 2.10  79 2.15  35 2.16  39 2.21   3 2.92  23 3.14
                            21 3.18
   8  0.626  0.734  0.610-  72 2.04  54 2.06  44 2.10  80 2.15  36 2.16  40 2.21   4 2.92  24 3.14
                            22 3.18
   9  0.124  0.266  0.110-  65 2.04  57 2.06  37 2.10  75 2.15  45 2.16  41 2.21  13 2.92  27 3.14
                            25 3.18
  10  0.124  0.766  0.110-  66 2.04  58 2.06  38 2.10  76 2.15  46 2.16  42 2.21  14 2.92  28 3.14
                            26 3.18
  11  0.624  0.266  0.110-  67 2.04  59 2.06  39 2.10  73 2.15  47 2.16  43 2.21  15 2.92  25 3.14
                            27 3.18
  12  0.624  0.766  0.110-  68 2.04  60 2.06  40 2.10  74 2.15  48 2.16  44 2.21  16 2.92  26 3.14
                            28 3.18
  13  0.124  0.484  0.890-  66 2.04  62 2.06  34 2.10  75 2.15  41 2.16  45 2.21   9 2.92  32 3.14
                            30 3.18
  14  0.124  0.984  0.890-  65 2.04  61 2.06  33 2.10  76 2.15  42 2.16  46 2.21  10 2.92  31 3.14
                            29 3.18
  15  0.624  0.484  0.890-  68 2.04  64 2.06  36 2.10  73 2.15  43 2.16  47 2.21  11 2.92  30 3.14
                            32 3.18
  16  0.624  0.984  0.890-  67 2.04  63 2.06  35 2.10  74 2.15  44 2.16  48 2.21  12 2.92  29 3.14
                            31 3.18
  17  0.374  0.484  0.610-  78 2.04  36 2.06  62 2.10  69 2.15  53 2.16  49 2.21  21 2.92   2 3.14
                             4 3.18
  18  0.374  0.984  0.610-  77 2.04  35 2.06  61 2.10  70 2.15  54 2.16  50 2.21  22 2.92   1 3.14
                             3 3.18
  19  0.874  0.484  0.610-  80 2.04  34 2.06  64 2.10  71 2.15  55 2.16  51 2.21  23 2.92   4 3.14
                             2 3.18
  20  0.874  0.984  0.610-  79 2.04  33 2.06  63 2.10  72 2.15  56 2.16  52 2.21  24 2.92   3 3.14
                             1 3.18
  21  0.374  0.266  0.390-  77 2.04  39 2.06  57 2.10  69 2.15  49 2.16  53 2.21  17 2.92   5 3.14
                             7 3.18
  22  0.374  0.766  0.390-  78 2.04  40 2.06  58 2.10  70 2.15  50 2.16  54 2.21  18 2.92   6 3.14
                             8 3.18
  23  0.874  0.266  0.390-  79 2.04  37 2.06  59 2.10  71 2.15  51 2.16  55 2.21  19 2.92   7 3.14
                             5 3.18
  24  0.874  0.766  0.390-  80 2.04  38 2.06  60 2.10  72 2.15  52 2.16  56 2.21  20 2.92   8 3.14
                             6 3.18
  25  0.376  0.234  0.890-  73 2.04  41 2.06  53 2.10  67 2.15  61 2.16  57 2.21  29 2.92  11 3.14
                             9 3.18
  26  0.376  0.734  0.890-  74 2.04  42 2.06  54 2.10  68 2.15  62 2.16  58 2.21  30 2.92  12 3.14
                            10 3.18
  27  0.876  0.234  0.890-  75 2.04  43 2.06  55 2.10  65 2.15  63 2.16  59 2.21  31 2.92   9 3.14
                            11 3.18
  28  0.876  0.734  0.890-  76 2.04  44 2.06  56 2.10  66 2.15  64 2.16  60 2.21  32 2.92  10 3.14
                            12 3.18
  29  0.376  0.016  0.110-  74 2.04  46 2.06  50 2.10  67 2.15  57 2.16  61 2.21  25 2.92  16 3.14
                            14 3.18
  30  0.376  0.516  0.110-  73 2.04  45 2.06  49 2.10  68 2.15  58 2.16  62 2.21  26 2.92  15 3.14
                            13 3.18
  31  0.876  0.016  0.110-  76 2.04  48 2.06  52 2.10  65 2.15  59 2.16  63 2.21  27 2.92  14 3.14
                            16 3.18
  32  0.876  0.516  0.110-  75 2.04  47 2.06  51 2.10  66 2.15  60 2.16  64 2.21  28 2.92  13 3.14
                            15 3.18
  33  0.054  0.051  0.654-  20 2.06  14 2.10   5 2.16   1 2.21
  34  0.054  0.551  0.654-  19 2.06  13 2.10   6 2.16   2 2.21
  35  0.554  0.051  0.654-  18 2.06  16 2.10   7 2.16   3 2.21
  36  0.554  0.551  0.654-  17 2.06  15 2.10   8 2.16   4 2.21
  37  0.054  0.199  0.346-  23 2.06   9 2.10   1 2.16   5 2.21
  38  0.054  0.699  0.346-  24 2.06  10 2.10   2 2.16   6 2.21
  39  0.554  0.199  0.346-  21 2.06  11 2.10   3 2.16   7 2.21
  40  0.554  0.699  0.346-  22 2.06  12 2.10   4 2.16   8 2.21
  41  0.196  0.301  0.846-  25 2.06   5 2.10  13 2.16   9 2.21
  42  0.196  0.801  0.846-  26 2.06   6 2.10  14 2.16  10 2.21
  43  0.696  0.301  0.846-  27 2.06   7 2.10  15 2.16  11 2.21
  44  0.696  0.801  0.846-  28 2.06   8 2.10  16 2.16  12 2.21
  45  0.196  0.449  0.154-  30 2.06   2 2.10   9 2.16  13 2.21
  46  0.196  0.949  0.154-  29 2.06   1 2.10  10 2.16  14 2.21
  47  0.696  0.449  0.154-  32 2.06   4 2.10  11 2.16  15 2.21
  48  0.696  0.949  0.154-  31 2.06   3 2.10  12 2.16  16 2.21
  49  0.446  0.449  0.346-   4 2.06  30 2.10  21 2.16  17 2.21
  50  0.446  0.949  0.346-   3 2.06  29 2.10  22 2.16  18 2.21
  51  0.946  0.449  0.346-   2 2.06  32 2.10  23 2.16  19 2.21
  52  0.946  0.949  0.346-   1 2.06  31 2.10  24 2.16  20 2.21
  53  0.446  0.301  0.654-   7 2.06  25 2.10  17 2.16  21 2.21
  54  0.446  0.801  0.654-   8 2.06  26 2.10  18 2.16  22 2.21
  55  0.946  0.301  0.654-   5 2.06  27 2.10  19 2.16  23 2.21
  56  0.946  0.801  0.654-   6 2.06  28 2.10  20 2.16  24 2.21
  57  0.304  0.199  0.154-   9 2.06  21 2.10  29 2.16  25 2.21
  58  0.304  0.699  0.154-  10 2.06  22 2.10  30 2.16  26 2.21
  59  0.804  0.199  0.154-  11 2.06  23 2.10  31 2.16  27 2.21
  60  0.804  0.699  0.154-  12 2.06  24 2.10  32 2.16  28 2.21
  61  0.304  0.051  0.846-  14 2.06  18 2.10  25 2.16  29 2.21
  62  0.304  0.551  0.846-  13 2.06  17 2.10  26 2.16  30 2.21
  63  0.804  0.051  0.846-  16 2.06  20 2.10  27 2.16  31 2.21
  64  0.804  0.551  0.846-  15 2.06  19 2.10  28 2.16  32 2.21
  65  0.025  0.125  0.000-  14 2.04   9 2.04  27 2.15  31 2.15
  66  0.025  0.625  0.000-  13 2.04  10 2.04  28 2.15  32 2.15
  67  0.525  0.125  0.000-  16 2.04  11 2.04  25 2.15  29 2.15
  68  0.525  0.625  0.000-  15 2.04  12 2.04  26 2.15  30 2.15
  69  0.225  0.375  0.500-   5 2.04   2 2.04  17 2.15  21 2.15
  70  0.225  0.875  0.500-   6 2.04   1 2.04  18 2.15  22 2.15
  71  0.725  0.375  0.500-   7 2.04   4 2.04  19 2.15  23 2.15
  72  0.725  0.875  0.500-   8 2.04   3 2.04  20 2.15  24 2.15
  73  0.475  0.375  0.000-  25 2.04  30 2.04  15 2.15  11 2.15
  74  0.475  0.875  0.000-  29 2.04  26 2.04  16 2.15  12 2.15
  75  0.975  0.375  0.000-  27 2.04  32 2.04  13 2.15   9 2.15
  76  0.975  0.875  0.000-  31 2.04  28 2.04  14 2.15  10 2.15
  77  0.275  0.125  0.500-  18 2.04  21 2.04   5 2.15   1 2.15
  78  0.275  0.625  0.500-  17 2.04  22 2.04   6 2.15   2 2.15
  79  0.775  0.125  0.500-  20 2.04  23 2.04   7 2.15   3 2.15
  80  0.775  0.625  0.500-  19 2.04  24 2.04   8 2.15   4 2.15

  LATTYP: Found a simple orthorhombic cell.
 ALAT       =     7.7252773090
 B/A-ratio  =     1.3681458986
 C/A-ratio  =     1.4070268484
  
  Lattice vectors:
  
 A1 = (   0.0000000000,   0.0000000000,   7.7252773090)
 A2 = (  10.5693064657,   0.0000000000,   0.0000000000)
 A3 = (   0.0000000000,  10.8696725854,   0.0000000000)


Analysis of symmetry for initial positions (statically):
=====================================================================
 Subroutine PRICEL returns following result:
 
  LATTYP: Found a simple orthorhombic cell.
 ALAT       =     5.2846532331
 B/A-ratio  =     1.0284187391
 C/A-ratio  =     1.4618323981
  
  Lattice vectors:
  
 A1 = (   5.2846532331,   0.0000000000,   0.0000000000)
 A2 = (   0.0000000000,   5.4348364145,   0.0000000000)
 A3 = (   0.0000000000,   0.0000000000,   7.7252773090)
 
   4 primitive cells build up your supercell.
 

 Routine SETGRP: Setting up the symmetry group for a 
 simple orthorhombic supercell.


 Subroutine GETGRP returns: Found  8 space group operations
 (whereof  2 operations were pure point group operations)
 out of a pool of  8 trial point group operations.


The static configuration has the point symmetry S_2 .
 The point group associated with its full space group is D_2h.


Analysis of symmetry for dynamics (positions and initial velocities):
=====================================================================
 Subroutine PRICEL returns following result:
 
  LATTYP: Found a simple orthorhombic cell.
 ALAT       =     5.2846532331
 B/A-ratio  =     1.0284187391
 C/A-ratio  =     1.4618323981
  
  Lattice vectors:
  
 A1 = (   5.2846532331,   0.0000000000,   0.0000000000)
 A2 = (   0.0000000000,   5.4348364145,   0.0000000000)
 A3 = (   0.0000000000,   0.0000000000,   7.7252773090)
 
   4 primitive cells build up your supercell.
 

 Routine SETGRP: Setting up the symmetry group for a 
 simple orthorhombic supercell.


 Subroutine GETGRP returns: Found  8 space group operations
 (whereof  2 operations were pure point group operations)
 out of a pool of  8 trial point group operations.


The dynamic configuration has the point symmetry S_2 .
 The point group associated with its full space group is D_2h.


Analysis of constrained symmetry for selective dynamics:
=====================================================================
 Subroutine PRICEL returns following result:
 
  LATTYP: Found a simple orthorhombic cell.
 ALAT       =     5.2846532331
 B/A-ratio  =     1.0284187391
 C/A-ratio  =     1.4618323981
  
  Lattice vectors:
  
 A1 = (   5.2846532331,   0.0000000000,   0.0000000000)
 A2 = (   0.0000000000,   5.4348364145,   0.0000000000)
 A3 = (   0.0000000000,   0.0000000000,   7.7252773090)
 
   4 primitive cells build up your supercell.
 

 Routine SETGRP: Setting up the symmetry group for a 
 simple orthorhombic supercell.


 Subroutine GETGRP returns: Found  8 space group operations
 (whereof  2 operations were pure point group operations)
 out of a pool of  8 trial point group operations.


The constrained configuration has the point symmetry S_2 .
 The point group associated with its full space group is D_2h.


 Subroutine INISYM returns: Found  8 space group operations
 (whereof  2 operations are pure point group operations),
 and found     4 'primitive' translations


----------------------------------------------------------------------------------------

                                     Primitive cell                                     

  volume of cell :     221.8794

  direct lattice vectors                    reciprocal lattice vectors
     5.284653233  0.000000000  0.000000000     0.189227175  0.000000000  0.000000000
     0.000000000  5.434836414  0.000000000     0.000000000  0.183998178  0.000000000
     0.000000000  0.000000000  7.725277309     0.000000000  0.000000000  0.129445191

  length of vectors
     5.284653233  5.434836414  7.725277309     0.189227175  0.183998178  0.129445191

  position of ions in fractional coordinates (direct lattice)
     0.252301010  0.031394432  0.389988368
     0.252301010  0.468605564  0.610011602
     0.247698990  0.531394421  0.110011610
     0.247698990  0.968605501  0.889988398
     0.747698961  0.968605501  0.610011602
     0.747698961  0.531394421  0.389988368
     0.752301039  0.468605564  0.889988398
     0.752301039  0.031394432  0.110011610
     0.107072531  0.102390997  0.654148561
     0.107072531  0.397608992  0.345851469
     0.392927454  0.602391023  0.845851439
     0.392927454  0.897608899  0.154148517
     0.892927514  0.897608899  0.345851469
     0.892927514  0.602391023  0.654148561
     0.607072486  0.397608992  0.154148517
     0.607072486  0.102390997  0.845851439
     0.050188047  0.249999994  0.000000000
     0.449811960  0.749999961  0.500000000
     0.949811900  0.749999961  0.000000000
     0.550188099  0.249999994  0.500000000

  ion indices of the primitive-cell ions
   primitive index   ion index
                 1           1
                 2           5
                 3          10
                 4          14
                 5          18
                 6          22
                 7          27
                 8          31
                 9          33
                10          37
                11          42
                12          46
                13          52
                14          56
                15          57
                16          61
                17          65
                18          70
                19          76
                20          77

----------------------------------------------------------------------------------------



 KPOINTS: k-points                                

Automatic generation of k-mesh.
 Grid dimensions read from file:
 generate k-points for:    4    4    4

 Generating k-lattice:

  Cartesian coordinates                     Fractional coordinates (reciprocal lattice)
     0.023653397  0.000000000  0.000000000     0.250000000  0.000000000  0.000000000
     0.000000000  0.022999773  0.000000000     0.000000000  0.250000000  0.000000000
     0.000000000  0.000000000  0.032361298     0.000000000  0.000000000  0.250000000

  Length of vectors
     0.023653397  0.022999773  0.032361298

  Shift w.r.t. Gamma in fractional coordinates (k-lattice)
     0.500000000  0.500000000  0.500000000

 
 Subroutine IBZKPT returns following result:
 ===========================================
 
 Found      8 irreducible k-points:
 
 Following reciprocal coordinates:
            Coordinates               Weight
  0.125000  0.125000  0.125000      8.000000
  0.375000  0.125000  0.125000      8.000000
  0.125000  0.375000  0.125000      8.000000
  0.375000  0.375000  0.125000      8.000000
  0.125000  0.125000  0.375000      8.000000
  0.375000  0.125000  0.375000      8.000000
  0.125000  0.375000  0.375000      8.000000
  0.375000  0.375000  0.375000      8.000000
 
 Following cartesian coordinates:
            Coordinates               Weight
  0.011827  0.011500  0.016181      8.000000
  0.035480  0.011500  0.016181      8.000000
  0.011827  0.034500  0.016181      8.000000
  0.035480  0.034500  0.016181      8.000000
  0.011827  0.011500  0.048542      8.000000
  0.035480  0.011500  0.048542      8.000000
  0.011827  0.034500  0.048542      8.000000
  0.035480  0.034500  0.048542      8.000000
 


--------------------------------------------------------------------------------------------------------




 Dimension of arrays:
   k-points           NKPTS =      8   k-points in BZ     NKDIM =      8   number of bands    NBANDS=    233
   number of dos      NEDOS =    301   number of ions     NIONS =     80
   non local maximal  LDIM  =      4   non local SUM 2l+1 LMDIM =      8
   total plane-waves  NPLWV = 116640
   max r-space proj   IRMAX =   1498   max aug-charges    IRDMAX=   5314
   dimension x,y,z NGX =    54 NGY =   54 NGZ =   40
   dimension x,y,z NGXF=   108 NGYF=  108 NGZF=   80
   support grid    NGXF=   108 NGYF=  108 NGZF=   80
   ions per type =              32  48
   NGX,Y,Z   is equivalent  to a cutoff of   8.49,  8.26,  8.61 a.u.
   NGXF,Y,Z  is equivalent  to a cutoff of  16.99, 16.52, 17.22 a.u.

 SYSTEM =  Alumina_orthorombic_cell_under_strain   
 POSCAR =     Al  O                                

 Startparameter for this run:
   NWRITE =      2    write-flag & timer
   PREC   = normal    normal or accurate (medium, high low for compatibility)
   ISTART =      0    job   : 0-new  1-cont  2-samecut
   ICHARG =      2    charge: 1-file 2-atom 10-const
   ISPIN  =      1    spin polarized calculation?
   LNONCOLLINEAR =      F non collinear calculations
   LSORBIT =      F    spin-orbit coupling
   INIWAV =      1    electr: 0-lowe 1-rand  2-diag
   LASPH  =      F    aspherical Exc in radial PAW
 Electronic Relaxation 1
   ENCUT  =  400.0 eV  29.40 Ry    5.42 a.u.  17.24 17.73 12.60*2*pi/ulx,y,z
   ENINI  =  400.0     initial cutoff
   ENAUG  =  605.4 eV  augmentation charge cutoff
   NELM   =    100;   NELMIN=  2; NELMDL= -5     # of ELM steps 
   EDIFF  = 0.1E-05   stopping-criterion for ELM
   LREAL  =      T    real-space projection
   NLSPLINE    = F    spline interpolate recip. space projectors
   LCOMPAT=      F    compatible to vasp.4.4
   GGA_COMPAT  = T    GGA compatible to vasp.4.4-vasp.4.6
   LMAXPAW     = -100 max onsite density
   LMAXMIX     =    2 max onsite mixed and CHGCAR
   VOSKOWN=      0    Vosko Wilk Nusair interpolation
   ROPT   =   -0.00050  -0.00050
 Ionic relaxation
   EDIFFG = -.1E-02   stopping-criterion for IOM
   NSW    =      0    number of steps for IOM
   NBLOCK =      1;   KBLOCK =      1    inner block; outer block 
   IBRION =     -1    ionic relax: 0-MD 1-quasi-New 2-CG
   NFREE  =      0    steps in history (QN), initial steepest desc. (CG)
   ISIF   =      2    stress and relaxation
   IWAVPR =     10    prediction:  0-non 1-charg 2-wave 3-comb
   ISYM   =      2    0-nonsym 1-usesym 2-fastsym
   LCORR  =      T    Harris-Foulkes like correction to forces

   POTIM  = 0.5000    time-step for ionic-motion
   TEIN   =    0.0    initial temperature
   TEBEG  =    0.0;   TEEND  =   0.0 temperature during run
   SMASS  =  -3.00    Nose mass-parameter (am)
   estimated Nose-frequenzy (Omega)   =  0.10E-29 period in steps = 0.13E+47 mass=  -0.255E-26a.u.
   SCALEE = 1.0000    scale energy and forces
   NPACO  =    256;   APACO  = 10.0  distance and # of slots for P.C.
   PSTRESS=    0.0 pullay stress

  Mass of Ions in am
   POMASS =  26.98 16.00
  Ionic Valenz
   ZVAL   =   3.00  6.00
  Atomic Wigner-Seitz radii
   RWIGS  =  -1.00 -1.00
  virtual crystal weights 
   VCA    =   1.00  1.00
   NELECT =     384.0000    total number of electrons
   NUPDOWN=      -1.0000    fix difference up-down

 DOS related values:
   EMIN   =  10.00;   EMAX   =-10.00  energy-range for DOS
   EFERMI =   0.00
   ISMEAR =     1;   SIGMA  =   0.03  broadening in eV -4-tet -1-fermi 0-gaus

 Electronic relaxation 2 (details)
   IALGO  =     38    algorithm
   LDIAG  =      T    sub-space diagonalisation (order eigenvalues)
   LSUBROT=      F    optimize rotation matrix (better conditioning)
   TURBO    =      0    0=normal 1=particle mesh
   IRESTART =      0    0=no restart 2=restart with 2 vectors
   NREBOOT  =      0    no. of reboots
   NMIN     =      0    reboot dimension
   EREF     =   0.00    reference energy to select bands
   IMIX   =      4    mixing-type and parameters
     AMIX     =   0.40;   BMIX     =  1.00
     AMIX_MAG =   1.60;   BMIX_MAG =  1.00
     AMIN     =   0.10
     WC   =   100.;   INIMIX=   1;  MIXPRE=   1;  MAXMIX= -45

 Intra band minimization:
   WEIMIN = 0.0000     energy-eigenvalue tresh-hold
   EBREAK =  0.11E-08  absolut break condition
   DEPER  =   0.30     relativ break condition  

   TIME   =   0.40     timestep for ELM

  volume/ion in A,a.u.               =      11.09        74.87
  Fermi-wavevector in a.u.,A,eV,Ry     =   1.238206  2.339870 20.859827  1.533154
  Thomas-Fermi vector in A             =   2.372741

 Write flags
   LWAVE        =      T    write WAVECAR
   LDOWNSAMPLE  =      F    k-point downsampling of WAVECAR
   LCHARG       =      T    write CHGCAR
   LVTOT        =      F    write LOCPOT, total local potential
   LVHAR        =      F    write LOCPOT, Hartree potential only
   LELF         =      F    write electronic localiz. function (ELF)
   LORBIT       =      0    0 simple, 1 ext, 2 COOP (PROOUT), +10 PAW based schemes


 Dipole corrections
   LMONO  =      F    monopole corrections only (constant potential shift)
   LDIPOL =      F    correct potential (dipole corrections)
   IDIPOL =      0    1-x, 2-y, 3-z, 4-all directions 
   EPSILON=  1.0000000 bulk dielectric constant

 Exchange correlation treatment:
   GGA     =    --    GGA type
   LEXCH   =     8    internal setting for exchange type
   LIBXC   =     F    Libxc                    
   VOSKOWN =     0    Vosko Wilk Nusair interpolation
   LHFCALC =     F    Hartree Fock is set to
   LHFONE  =     F    Hartree Fock one center treatment
   AEXX    =    0.0000 exact exchange contribution

 Linear response parameters
   LEPSILON=     F    determine dielectric tensor
   LRPA    =     F    only Hartree local field effects (RPA)
   LNABLA  =     F    use nabla operator in PAW spheres
   LVEL    =     F    velocity operator in full k-point grid
   CSHIFT  =0.1000    complex shift for real part using Kramers Kronig
   OMEGAMAX=  -1.0    maximum frequency
   DEG_THRESHOLD= 0.2000000E-02 threshold for treating states as degnerate
   RTIME   =   -0.100 relaxation time in fs
  (WPLASMAI=    0.000 imaginary part of plasma frequency in eV, 0.658/RTIME)
   DFIELD  = 0.0000000 0.0000000 0.0000000 field for delta impulse in time

  Optional k-point grid parameters
   LKPOINTS_OPT  =     F    use optional k-point grid
   KPOINTS_OPT_MODE=     1    mode for optional k-point grid

 Orbital magnetization related:
   ORBITALMAG=     F  switch on orbital magnetization
   LCHIMAG   =     F  perturbation theory with respect to B field
   DQ        =  0.001000  dq finite difference perturbation B field
   LLRAUG    =     F  two centre corrections for induced B field



--------------------------------------------------------------------------------------------------------


 Static calculation
 charge density and potential will be updated during run
 non-spin polarized calculation
 Variant of blocked Davidson
 Davidson routine will perform the subspace rotation
 perform sub-space diagonalisation
    after iterative eigenvector-optimisation
 modified Broyden-mixing scheme, WC =      100.0
 initial mixing is a Kerker type mixing with AMIX =  0.4000 and BMIX =      1.0000
 Hartree-type preconditioning will be used
 using additional bands           41
 real space projection scheme for non local part
 use partial core corrections
 calculate Harris-corrections to forces   (improved forces if not selfconsistent)
 use gradient corrections 
 use of overlap-Matrix (Vanderbilt PP)
 Methfessel and Paxton  Order N= 1 SIGMA  =   0.03


--------------------------------------------------------------------------------------------------------


  energy-cutoff  :      400.00
  volume of cell :      887.52
      direct lattice vectors                 reciprocal lattice vectors
    10.569306466  0.000000000  0.000000000     0.094613587  0.000000000  0.000000000
     0.000000000 10.869672585  0.000000000     0.000000000  0.091999091  0.000000000
     0.000000000  0.000000000  7.725277309     0.000000000  0.000000000  0.129445191

  length of vectors
    10.569306466 10.869672585  7.725277309     0.094613587  0.091999091  0.129445191



 k-points in units of 2pi/SCALE and weight: k-points                                
   0.01182670  0.01149989  0.01618065       0.125
   0.03548010  0.01149989  0.01618065       0.125
   0.01182670  0.03449966  0.01618065       0.125
   0.03548010  0.03449966  0.01618065       0.125
   0.01182670  0.01149989  0.04854195       0.125
   0.03548010  0.01149989  0.04854195       0.125
   0.01182670  0.03449966  0.04854195       0.125
   0.03548010  0.03449966  0.04854195       0.125

 k-points in reciprocal lattice and weights: k-points                                
   0.12500000  0.12500000  0.12500000       0.125
   0.37500000  0.12500000  0.12500000       0.125
   0.12500000  0.37500000  0.12500000       0.125
   0.37500000  0.37500000  0.12500000       0.125
   0.12500000  0.12500000  0.37500000       0.125
   0.37500000  0.12500000  0.37500000       0.125
   0.12500000  0.37500000  0.37500000       0.125
   0.37500000  0.37500000  0.37500000       0.125

 position of ions in fractional coordinates (direct lattice) 
   0.12615050  0.01569722  0.38998837
   0.12615050  0.51569723  0.38998837
   0.62615052  0.01569722  0.38998837
   0.62615052  0.51569723  0.38998837
   0.12615050  0.23430279  0.61001160
   0.12615050  0.73430277  0.61001160
   0.62615052  0.23430279  0.61001160
   0.62615052  0.73430277  0.61001160
   0.12384950  0.26569723  0.11001161
   0.12384950  0.76569723  0.11001161
   0.62384948  0.26569723  0.11001161
   0.62384948  0.76569723  0.11001161
   0.12384950  0.48430277  0.88998840
   0.12384950  0.98430277  0.88998840
   0.62384948  0.48430277  0.88998840
   0.62384948  0.98430277  0.88998840
   0.37384948  0.48430277  0.61001160
   0.37384948  0.98430277  0.61001160
   0.87384948  0.48430277  0.61001160
   0.87384948  0.98430277  0.61001160
   0.37384948  0.26569723  0.38998837
   0.37384948  0.76569723  0.38998837
   0.87384948  0.26569723  0.38998837
   0.87384948  0.76569723  0.38998837
   0.37615052  0.23430279  0.88998840
   0.37615052  0.73430277  0.88998840
   0.87615052  0.23430279  0.88998840
   0.87615052  0.73430277  0.88998840
   0.37615052  0.01569722  0.11001161
   0.37615052  0.51569723  0.11001161
   0.87615052  0.01569722  0.11001161
   0.87615052  0.51569723  0.11001161
   0.05353627  0.05119550  0.65414856
   0.05353627  0.55119553  0.65414856
   0.55353624  0.05119550  0.65414856
   0.55353624  0.55119553  0.65414856
   0.05353627  0.19880450  0.34585147
   0.05353627  0.69880447  0.34585147
   0.55353624  0.19880450  0.34585147
   0.55353624  0.69880447  0.34585147
   0.19646373  0.30119550  0.84585144
   0.19646373  0.80119553  0.84585144
   0.69646370  0.30119550  0.84585144
   0.69646370  0.80119553  0.84585144
   0.19646373  0.44880450  0.15414852
   0.19646373  0.94880447  0.15414852
   0.69646370  0.44880450  0.15414852
   0.69646370  0.94880447  0.15414852
   0.44646376  0.44880450  0.34585147
   0.44646376  0.94880447  0.34585147
   0.94646376  0.44880450  0.34585147
   0.94646376  0.94880447  0.34585147
   0.44646376  0.30119550  0.65414856
   0.44646376  0.80119553  0.65414856
   0.94646376  0.30119550  0.65414856
   0.94646376  0.80119553  0.65414856
   0.30353624  0.19880450  0.15414852
   0.30353624  0.69880447  0.15414852
   0.80353624  0.19880450  0.15414852
   0.80353624  0.69880447  0.15414852
   0.30353624  0.05119550  0.84585144
   0.30353624  0.55119553  0.84585144
   0.80353624  0.05119550  0.84585144
   0.80353624  0.55119553  0.84585144
   0.02509402  0.12500000  0.00000000
   0.02509402  0.62500000  0.00000000
   0.52509405  0.12500000  0.00000000
   0.52509405  0.62500000  0.00000000
   0.22490598  0.37500000  0.50000000
   0.22490598  0.87500000  0.50000000
   0.72490601  0.37500000  0.50000000
   0.72490601  0.87500000  0.50000000
   0.47490595  0.37500000  0.00000000
   0.47490595  0.87500000  0.00000000
   0.97490595  0.37500000  0.00000000
   0.97490595  0.87500000  0.00000000
   0.27509405  0.12500000  0.50000000
   0.27509405  0.62500000  0.50000000
   0.77509405  0.12500000  0.50000000
   0.77509405  0.62500000  0.50000000

 position of ions in cartesian coordinates  (Angst):
   1.33332335  0.17062360  3.01276829
   1.33332335  5.60546002  3.01276829
   6.61797674  0.17062360  3.01276829
   6.61797674  5.60546002  3.01276829
   1.33332335  2.54679458  4.71250879
   1.33332335  7.98163071  4.71250879
   6.61797674  2.54679458  4.71250879
   6.61797674  7.98163071  4.71250879
   1.30900327  2.88804187  0.84987019
   1.30900327  8.32287816  0.84987019
   6.59365635  2.88804187  0.84987019
   6.59365635  8.32287816  0.84987019
   1.30900327  5.26421257  6.87540717
   1.30900327 10.69904886  6.87540717
   6.59365635  5.26421257  6.87540717
   6.59365635 10.69904886  6.87540717
   3.95132973  5.26421257  4.71250879
   3.95132973 10.69904886  4.71250879
   9.23598296  5.26421257  4.71250879
   9.23598296 10.69904886  4.71250879
   3.95132973  2.88804187  3.01276829
   3.95132973  8.32287816  3.01276829
   9.23598296  2.88804187  3.01276829
   9.23598296  8.32287816  3.01276829
   3.97565012  2.54679458  6.87540717
   3.97565012  7.98163071  6.87540717
   9.26030335  2.54679458  6.87540717
   9.26030335  7.98163071  6.87540717
   3.97565012  0.17062360  0.84987019
   3.97565012  5.60546002  0.84987019
   9.26030335  0.17062360  0.84987019
   9.26030335  5.60546002  0.84987019
   0.56584120  0.55647832  5.05347904
   0.56584120  5.99131493  5.05347904
   5.85049419  0.55647832  5.05347904
   5.85049419  5.99131493  5.05347904
   0.56584120  2.16093983  2.67179850
   0.56584120  7.59577580  2.67179850
   5.85049419  2.16093983  2.67179850
   5.85049419  7.59577580  2.67179850
   2.07648534  3.27389646  6.53443693
   2.07648534  8.70873308  6.53443693
   7.36113826  3.27389646  6.53443693
   7.36113826  8.70873308  6.53443693
   2.07648534  4.87835798  1.19084004
   2.07648534 10.31319394  1.19084004
   7.36113826  4.87835798  1.19084004
   7.36113826 10.31319394  1.19084004
   4.71881227  4.87835798  2.67179850
   4.71881227 10.31319394  2.67179850
  10.00346551  4.87835798  2.67179850
  10.00346551 10.31319394  2.67179850
   4.71881227  3.27389646  5.05347904
   4.71881227  8.70873308  5.05347904
  10.00346551  3.27389646  5.05347904
  10.00346551  8.70873308  5.05347904
   3.20816758  2.16093983  1.19084004
   3.20816758  7.59577580  1.19084004
   8.49282081  2.16093983  1.19084004
   8.49282081  7.59577580  1.19084004
   3.20816758  0.55647832  6.53443693
   3.20816758  5.99131493  6.53443693
   8.49282081  0.55647832  6.53443693
   8.49282081  5.99131493  6.53443693
   0.26522643  1.35870907  0.00000000
   0.26522643  6.79354537  0.00000000
   5.54987993  1.35870907  0.00000000
   5.54987993  6.79354537  0.00000000
   2.37710023  4.07612722  3.86263865
   2.37710023  9.51096351  3.86263865
   7.66175378  4.07612722  3.86263865
   7.66175378  9.51096351  3.86263865
   5.01942653  4.07612722  0.00000000
   5.01942653  9.51096351  0.00000000
  10.30407976  4.07612722  0.00000000
  10.30407976  9.51096351  0.00000000
   2.90755332  1.35870907  3.86263865
   2.90755332  6.79354537  3.86263865
   8.19220655  1.35870907  3.86263865
   8.19220655  6.79354537  3.86263865



--------------------------------------------------------------------------------------------------------


 k-point   1 :   0.1250 0.1250 0.1250  plane waves:   16139
 k-point   2 :   0.3750 0.1250 0.1250  plane waves:   16119
 k-point   3 :   0.1250 0.3750 0.1250  plane waves:   16146
 k-point   4 :   0.3750 0.3750 0.1250  plane waves:   16140
 k-point   5 :   0.1250 0.1250 0.3750  plane waves:   16106
 k-point   6 :   0.3750 0.1250 0.3750  plane waves:   16114
 k-point   7 :   0.1250 0.3750 0.3750  plane waves:   16100
 k-point   8 :   0.3750 0.3750 0.3750  plane waves:   16113

 maximum and minimum number of plane-waves per node :     16146    16100

 maximum number of plane-waves:     16146
 maximum index in each direction: 
   IXMAX=   17   IYMAX=   17   IZMAX=   12
   IXMIN=  -17   IYMIN=  -18   IZMIN=  -12


 serial   3D FFT for wavefunctions
 parallel 3D FFT for charge:
    minimum data exchange during FFTs selected (reduces bandwidth)


 total amount of memory used by VASP MPI-rank0   630264. kBytes
=======================================================================

   base      :      30000. kBytes
   nonlr-proj:       8938. kBytes
   fftplans  :      32556. kBytes
   grid      :      57900. kBytes
   one-center:        245. kBytes
   wavefun   :     500625. kBytes

     INWAV:  cpu time      0.0001: real time      0.0003
 Broyden mixing: mesh for mixing (old mesh)
   NGX = 35   NGY = 35   NGZ = 25
  (NGX  =108   NGY  =108   NGZ  = 80)
  gives a total of  30625 points

 initial charge density was supplied:
 charge density of overlapping atoms calculated
 number of electron     384.0000000 magnetization 
 keeping initial charge density in first step


--------------------------------------------------------------------------------------------------------


 Maximum index for non-local projection operator         1410
 Maximum index for augmentation-charges         4950 (set IRDMAX)


--------------------------------------------------------------------------------------------------------


 First call to EWALD:  gamma=   0.184
 Maximum number of real-space cells 3x 2x 3
 Maximum number of reciprocal cells 3x 3x 2

    FEWALD:  cpu time      0.0732: real time      0.0735


--------------------------------------- Iteration      1(   1)  ---------------------------------------


    POTLOK:  cpu time      0.4352: real time      0.4374
    SETDIJ:  cpu time      0.0904: real time      0.0908
     EDDAV:  cpu time     52.1080: real time     52.5087
       DOS:  cpu time      0.0023: real time      0.0023
    --------------------------------------------
      LOOP:  cpu time     52.6360: real time     53.0395

 eigenvalue-minimisations  :  3728
 total energy-change (2. order) : 0.1867455E+04  (-0.1673527E+05)
 number of electron     384.0000000 magnetization 
 augmentation part      384.0000000 magnetization 

 Free energy of the ion-electron system (eV)
  ---------------------------------------------------
  alpha Z        PSCENC =       465.46721903
  Ewald energy   TEWEN  =    -17714.22035223
  -Hartree energ DENC   =     -5687.82872382
  -exchange      EXHF   =         0.00000000
  -V(xc)+E(xc)   XCENC  =       484.69230886
  PAW double counting   =     18752.77991877   -17816.57094691
  entropy T*S    EENTRO =        -0.00061465
  eigenvalues    EBANDS =       921.28206362
  atomic energy  EATOM  =     22461.85434800
  Solvation  Ediel_sol  =         0.00000000
  ---------------------------------------------------
  free energy    TOTEN  =      1867.45522067 eV

  energy without entropy =     1867.45583532  energy(sigma->0) =     1867.45542555


--------------------------------------------------------------------------------------------------------




--------------------------------------- Iteration      1(   2)  ---------------------------------------


     EDDAV:  cpu time     61.0261: real time     61.3938
       DOS:  cpu time      0.0021: real time      0.0021
    --------------------------------------------
      LOOP:  cpu time     61.0282: real time     61.3959

 eigenvalue-minimisations  :  4561
 total energy-change (2. order) :-0.2327839E+04  (-0.2264654E+04)
 number of electron     384.0000000 magnetization 
 augmentation part      384.0000000 magnetization 

 Free energy of the ion-electron system (eV)
  ---------------------------------------------------
  alpha Z        PSCENC =       465.46721903
  Ewald energy   TEWEN  =    -17714.22035223
  -Hartree energ DENC   =     -5687.82872382
  -exchange      EXHF   =         0.00000000
  -V(xc)+E(xc)   XCENC  =       484.69230886
  PAW double counting   =     18752.77991877   -17816.57094691
  entropy T*S    EENTRO =         0.00041239
  eigenvalues    EBANDS =     -1406.55747839
  atomic energy  EATOM  =     22461.85434800
  Solvation  Ediel_sol  =         0.00000000
  ---------------------------------------------------
  free energy    TOTEN  =      -460.38329431 eV

  energy without entropy =     -460.38370669  energy(sigma->0) =     -460.38343177


--------------------------------------------------------------------------------------------------------




--------------------------------------- Iteration      1(   3)  ---------------------------------------


     EDDAV:  cpu time     58.2653: real time     58.6211
       DOS:  cpu time      0.0025: real time      0.0025
    --------------------------------------------
      LOOP:  cpu time     58.2679: real time     58.6236

 eigenvalue-minimisations  :  4304
 total energy-change (2. order) :-0.1643439E+03  (-0.1629715E+03)
 number of electron     384.0000000 magnetization 
 augmentation part      384.0000000 magnetization 

 Free energy of the ion-electron system (eV)
  ---------------------------------------------------
  alpha Z        PSCENC =       465.46721903
  Ewald energy   TEWEN  =    -17714.22035223
  -Hartree energ DENC   =     -5687.82872382
  -exchange      EXHF   =         0.00000000
  -V(xc)+E(xc)   XCENC  =       484.69230886
  PAW double counting   =     18752.77991877   -17816.57094691
  entropy T*S    EENTRO =         0.00342479
  eigenvalues    EBANDS =     -1570.90442728
  atomic energy  EATOM  =     22461.85434800
  Solvation  Ediel_sol  =         0.00000000
  ---------------------------------------------------
  free energy    TOTEN  =      -624.72723079 eV

  energy without entropy =     -624.73065558  energy(sigma->0) =     -624.72837238


--------------------------------------------------------------------------------------------------------




--------------------------------------- Iteration      1(   4)  ---------------------------------------


     EDDAV:  cpu time     58.8786: real time     59.2376
       DOS:  cpu time      0.0025: real time      0.0025
    --------------------------------------------
      LOOP:  cpu time     58.8811: real time     59.2401

 eigenvalue-minimisations  :  4360
 total energy-change (2. order) :-0.2761096E+01  (-0.2742754E+01)
 number of electron     384.0000000 magnetization 
 augmentation part      384.0000000 magnetization 

 Free energy of the ion-electron system (eV)
  ---------------------------------------------------
  alpha Z        PSCENC =       465.46721903
  Ewald energy   TEWEN  =    -17714.22035223
  -Hartree energ DENC   =     -5687.82872382
  -exchange      EXHF   =         0.00000000
  -V(xc)+E(xc)   XCENC  =       484.69230886
  PAW double counting   =     18752.77991877   -17816.57094691
  entropy T*S    EENTRO =         0.00421113
  eigenvalues    EBANDS =     -1573.66630944
  atomic energy  EATOM  =     22461.85434800
  Solvation  Ediel_sol  =         0.00000000
  ---------------------------------------------------
  free energy    TOTEN  =      -627.48832662 eV

  energy without entropy =     -627.49253774  energy(sigma->0) =     -627.48973032


--------------------------------------------------------------------------------------------------------




--------------------------------------- Iteration      1(   5)  ---------------------------------------


     EDDAV:  cpu time     57.3448: real time     57.6865
       DOS:  cpu time      0.0024: real time      0.0024
    CHARGE:  cpu time      2.4765: real time      2.5673
    MIXING:  cpu time      0.0141: real time      0.0142
    --------------------------------------------
      LOOP:  cpu time     59.8379: real time     60.2703

 eigenvalue-minimisations  :  4256
 total energy-change (2. order) :-0.6724325E-01  (-0.6708017E-01)
 number of electron     383.9998764 magnetization 
 augmentation part       35.8571719 magnetization 

 Broyden mixing:
  rms(total) = 0.45913E+01    rms(broyden)= 0.45891E+01
  rms(prec ) = 0.60726E+01
  weight for this iteration     100.00

 Free energy of the ion-electron system (eV)
  ---------------------------------------------------
  alpha Z        PSCENC =       465.46721903
  Ewald energy   TEWEN  =    -17714.22035223
  -Hartree energ DENC   =     -5687.82872382
  -exchange      EXHF   =         0.00000000
  -V(xc)+E(xc)   XCENC  =       484.69230886
  PAW double counting   =     18752.77991877   -17816.57094691
  entropy T*S    EENTRO =         0.00426998
  eigenvalues    EBANDS =     -1573.73361155
  atomic energy  EATOM  =     22461.85434800
  Solvation  Ediel_sol  =         0.00000000
  ---------------------------------------------------
  free energy    TOTEN  =      -627.55556987 eV

  energy without entropy =     -627.55983985  energy(sigma->0) =     -627.55699319


--------------------------------------------------------------------------------------------------------




--------------------------------------- Iteration      1(   6)  ---------------------------------------


    POTLOK:  cpu time      0.4146: real time      0.4168
    SETDIJ:  cpu time      0.0785: real time      0.0787
     EDDAV:  cpu time     54.7847: real time     55.1831
       DOS:  cpu time      0.0024: real time      0.0026
    CHARGE:  cpu time      2.4234: real time      2.4382
    MIXING:  cpu time      0.0154: real time      0.0155
    --------------------------------------------
      LOOP:  cpu time     57.7189: real time     58.1349

 eigenvalue-minimisations  :  4072
 total energy-change (2. order) : 0.6241351E+02  (-0.3362370E+02)
 number of electron     383.9999003 magnetization 
 augmentation part       28.7149225 magnetization 

 Broyden mixing:
  rms(total) = 0.17778E+01    rms(broyden)= 0.17740E+01
  rms(prec ) = 0.19645E+01
  weight for this iteration     100.00

 eigenvalues of (default mixing * dielectric matrix)
  average eigenvalue GAMMA=   0.8169
  0.8169

 Free energy of the ion-electron system (eV)
  ---------------------------------------------------
  alpha Z        PSCENC =       465.46721903
  Ewald energy   TEWEN  =    -17714.22035223
  -Hartree energ DENC   =     -6487.83945068
  -exchange      EXHF   =         0.00000000
  -V(xc)+E(xc)   XCENC  =       538.37126408
  PAW double counting   =     22628.18557021   -21703.74939565
  entropy T*S    EENTRO =         0.00417943
  eigenvalues    EBANDS =      -753.21544384
  atomic energy  EATOM  =     22461.85434800
  Solvation  Ediel_sol  =         0.00000000
  ---------------------------------------------------
  free energy    TOTEN  =      -565.14206165 eV

  energy without entropy =     -565.14624108  energy(sigma->0) =     -565.14345479


--------------------------------------------------------------------------------------------------------




--------------------------------------- Iteration      1(   7)  ---------------------------------------


    POTLOK:  cpu time      0.4140: real time      0.4159
    SETDIJ:  cpu time      0.0779: real time      0.0782
     EDDAV:  cpu time     55.6385: real time     55.9347
       DOS:  cpu time      0.0023: real time      0.0023
    CHARGE:  cpu time      2.4226: real time      2.4355
    MIXING:  cpu time      0.0161: real time      0.0162
    --------------------------------------------
      LOOP:  cpu time     58.5714: real time     58.8828

 eigenvalue-minimisations  :  4144
 total energy-change (2. order) : 0.7581653E+00  (-0.7136105E+00)
 number of electron     383.9998987 magnetization 
 augmentation part       29.1193831 magnetization 

 Broyden mixing:
  rms(total) = 0.95033E+00    rms(broyden)= 0.95030E+00
  rms(prec ) = 0.10826E+01
  weight for this iteration     100.00

 eigenvalues of (default mixing * dielectric matrix)
  average eigenvalue GAMMA=   1.2759
  0.9943  1.5576

 Free energy of the ion-electron system (eV)
  ---------------------------------------------------
  alpha Z        PSCENC =       465.46721903
  Ewald energy   TEWEN  =    -17714.22035223
  -Hartree energ DENC   =     -6454.31338339
  -exchange      EXHF   =         0.00000000
  -V(xc)+E(xc)   XCENC  =       536.47002052
  PAW double counting   =     24426.71346054   -23499.03061994
  entropy T*S    EENTRO =         0.00508863
  eigenvalues    EBANDS =      -787.32967754
  atomic energy  EATOM  =     22461.85434800
  Solvation  Ediel_sol  =         0.00000000
  ---------------------------------------------------
  free energy    TOTEN  =      -564.38389638 eV

  energy without entropy =     -564.38898500  energy(sigma->0) =     -564.38559259


--------------------------------------------------------------------------------------------------------




--------------------------------------- Iteration      1(   8)  ---------------------------------------


    POTLOK:  cpu time      0.4034: real time      0.4053
    SETDIJ:  cpu time      0.0780: real time      0.0783
     EDDAV:  cpu time     55.9202: real time     56.2164
       DOS:  cpu time      0.0024: real time      0.0026
    CHARGE:  cpu time      2.4237: real time      2.4367
    MIXING:  cpu time      0.0171: real time      0.0172
    --------------------------------------------
      LOOP:  cpu time     58.8448: real time     59.1565

 eigenvalue-minimisations  :  4176
 total energy-change (2. order) : 0.3749283E+00  (-0.1100973E+00)
 number of electron     383.9998983 magnetization 
 augmentation part       29.2078175 magnetization 

 Broyden mixing:
  rms(total) = 0.25130E+00    rms(broyden)= 0.25127E+00
  rms(prec ) = 0.29648E+00
  weight for this iteration     100.00

 eigenvalues of (default mixing * dielectric matrix)
  average eigenvalue GAMMA=   1.5096
  2.4790  1.0249  1.0249

 Free energy of the ion-electron system (eV)
  ---------------------------------------------------
  alpha Z        PSCENC =       465.46721903
  Ewald energy   TEWEN  =    -17714.22035223
  -Hartree energ DENC   =     -6472.67954963
  -exchange      EXHF   =         0.00000000
  -V(xc)+E(xc)   XCENC  =       538.59419369
  PAW double counting   =     26119.57669582   -25189.81572080
  entropy T*S    EENTRO =         0.00527475
  eigenvalues    EBANDS =      -772.79107671
  atomic energy  EATOM  =     22461.85434800
  Solvation  Ediel_sol  =         0.00000000
  ---------------------------------------------------
  free energy    TOTEN  =      -564.00896808 eV

  energy without entropy =     -564.01424283  energy(sigma->0) =     -564.01072633


--------------------------------------------------------------------------------------------------------




--------------------------------------- Iteration      1(   9)  ---------------------------------------


    POTLOK:  cpu time      0.4080: real time      0.4096
    SETDIJ:  cpu time      0.0782: real time      0.0784
     EDDAV:  cpu time     57.0484: real time     57.3178
       DOS:  cpu time      0.0025: real time      0.0025
    CHARGE:  cpu time      2.4251: real time      2.4379
    MIXING:  cpu time      0.0181: real time      0.0181
    --------------------------------------------
      LOOP:  cpu time     59.9802: real time     60.2644

 eigenvalue-minimisations  :  4288
 total energy-change (2. order) :-0.3379170E-01  (-0.1685127E-01)
 number of electron     383.9998986 magnetization 
 augmentation part       29.1323610 magnetization 

 Broyden mixing:
  rms(total) = 0.77186E-01    rms(broyden)= 0.77180E-01
  rms(prec ) = 0.80120E-01
  weight for this iteration     100.00

 eigenvalues of (default mixing * dielectric matrix)
  average eigenvalue GAMMA=   1.6939
  0.9571  0.9571  2.6198  2.2415

 Free energy of the ion-electron system (eV)
  ---------------------------------------------------
  alpha Z        PSCENC =       465.46721903
  Ewald energy   TEWEN  =    -17714.22035223
  -Hartree energ DENC   =     -6496.33825099
  -exchange      EXHF   =         0.00000000
  -V(xc)+E(xc)   XCENC  =       540.73704358
  PAW double counting   =     26558.34301252   -25628.11612048
  entropy T*S    EENTRO =         0.00529116
  eigenvalues    EBANDS =      -751.77495036
  atomic energy  EATOM  =     22461.85434800
  Solvation  Ediel_sol  =         0.00000000
  ---------------------------------------------------
  free energy    TOTEN  =      -564.04275978 eV

  energy without entropy =     -564.04805094  energy(sigma->0) =     -564.04452350


--------------------------------------------------------------------------------------------------------




--------------------------------------- Iteration      1(  10)  ---------------------------------------


    POTLOK:  cpu time      0.4148: real time      0.4166
    SETDIJ:  cpu time      0.0781: real time      0.0784
     EDDAV:  cpu time     57.8843: real time     58.1704
       DOS:  cpu time      0.0025: real time      0.0025
    CHARGE:  cpu time      2.4252: real time      2.4386
    MIXING:  cpu time      0.0188: real time      0.0188
    --------------------------------------------
      LOOP:  cpu time     60.8237: real time     61.1254

 eigenvalue-minimisations  :  4368
 total energy-change (2. order) :-0.8206386E-02  (-0.1160203E-02)
 number of electron     383.9998986 magnetization 
 augmentation part       29.1146975 magnetization 

 Broyden mixing:
  rms(total) = 0.20358E-01    rms(broyden)= 0.20352E-01
  rms(prec ) = 0.22903E-01
  weight for this iteration     100.00

 eigenvalues of (default mixing * dielectric matrix)
  average eigenvalue GAMMA=   1.6073
  2.7971  2.3565  0.9836  0.9836  0.9156

 Free energy of the ion-electron system (eV)
  ---------------------------------------------------
  alpha Z        PSCENC =       465.46721903
  Ewald energy   TEWEN  =    -17714.22035223
  -Hartree energ DENC   =     -6499.03332042
  -exchange      EXHF   =         0.00000000
  -V(xc)+E(xc)   XCENC  =       541.01090764
  PAW double counting   =     26268.93098346   -25338.81640581
  entropy T*S    EENTRO =         0.00527259
  eigenvalues    EBANDS =      -749.24961842
  atomic energy  EATOM  =     22461.85434800
  Solvation  Ediel_sol  =         0.00000000
  ---------------------------------------------------
  free energy    TOTEN  =      -564.05096616 eV

  energy without entropy =     -564.05623875  energy(sigma->0) =     -564.05272369


--------------------------------------------------------------------------------------------------------




--------------------------------------- Iteration      1(  11)  ---------------------------------------


    POTLOK:  cpu time      0.4164: real time      0.4183
    SETDIJ:  cpu time      0.0781: real time      0.0784
     EDDAV:  cpu time     56.7008: real time     57.1974
       DOS:  cpu time      0.0025: real time      0.0025
    CHARGE:  cpu time      2.4222: real time      2.4359
    MIXING:  cpu time      0.0198: real time      0.0891
    --------------------------------------------
      LOOP:  cpu time     59.6398: real time     60.2216

 eigenvalue-minimisations  :  4256
 total energy-change (2. order) : 0.9584575E-05  (-0.2154992E-03)
 number of electron     383.9998985 magnetization 
 augmentation part       29.1304801 magnetization 

 Broyden mixing:
  rms(total) = 0.69487E-02    rms(broyden)= 0.69432E-02
  rms(prec ) = 0.74067E-02
  weight for this iteration     100.00

 eigenvalues of (default mixing * dielectric matrix)
  average eigenvalue GAMMA=   1.5790
  2.8402  2.3665  0.9632  0.9632  1.1704  1.1704

 Free energy of the ion-electron system (eV)
  ---------------------------------------------------
  alpha Z        PSCENC =       465.46721903
  Ewald energy   TEWEN  =    -17714.22035223
  -Hartree energ DENC   =     -6497.68945360
  -exchange      EXHF   =         0.00000000
  -V(xc)+E(xc)   XCENC  =       540.93272583
  PAW double counting   =     26212.62046953   -25282.47949972
  entropy T*S    EENTRO =         0.00528349
  eigenvalues    EBANDS =      -750.54169691
  atomic energy  EATOM  =     22461.85434800
  Solvation  Ediel_sol  =         0.00000000
  ---------------------------------------------------
  free energy    TOTEN  =      -564.05095658 eV

  energy without entropy =     -564.05624007  energy(sigma->0) =     -564.05271774


--------------------------------------------------------------------------------------------------------




--------------------------------------- Iteration      1(  12)  ---------------------------------------


    POTLOK:  cpu time      0.4187: real time      0.6560
    SETDIJ:  cpu time      0.0794: real time      0.3678
     EDDAV:  cpu time     57.1999: real time     57.4953
       DOS:  cpu time      0.0025: real time      0.0025
    CHARGE:  cpu time      2.4254: real time      2.4370
    MIXING:  cpu time      0.0205: real time      0.0206
    --------------------------------------------
      LOOP:  cpu time     60.1463: real time     60.9792

 eigenvalue-minimisations  :  4296
 total energy-change (2. order) :-0.4084202E-04  (-0.4476483E-04)
 number of electron     383.9998985 magnetization 
 augmentation part       29.1312082 magnetization 

 Broyden mixing:
  rms(total) = 0.43368E-02    rms(broyden)= 0.43337E-02
  rms(prec ) = 0.48352E-02
  weight for this iteration     100.00

 eigenvalues of (default mixing * dielectric matrix)
  average eigenvalue GAMMA=   1.4951
  2.8794  2.3891  1.5668  0.9791  0.9791  0.8359  0.8359

 Free energy of the ion-electron system (eV)
  ---------------------------------------------------
  alpha Z        PSCENC =       465.46721903
  Ewald energy   TEWEN  =    -17714.22035223
  -Hartree energ DENC   =     -6497.74521619
  -exchange      EXHF   =         0.00000000
  -V(xc)+E(xc)   XCENC  =       540.93491565
  PAW double counting   =     26196.58823302   -25266.44799650
  entropy T*S    EENTRO =         0.00528842
  eigenvalues    EBANDS =      -750.48743662
  atomic energy  EATOM  =     22461.85434800
  Solvation  Ediel_sol  =         0.00000000
  ---------------------------------------------------
  free energy    TOTEN  =      -564.05099742 eV

  energy without entropy =     -564.05628584  energy(sigma->0) =     -564.05276023


--------------------------------------------------------------------------------------------------------




--------------------------------------- Iteration      1(  13)  ---------------------------------------


    POTLOK:  cpu time      0.4111: real time      0.4130
    SETDIJ:  cpu time      0.0788: real time      0.0791
     EDDAV:  cpu time     61.3037: real time     61.6315
       DOS:  cpu time      0.0024: real time      0.0024
    CHARGE:  cpu time      2.4191: real time      2.4315
    MIXING:  cpu time      0.0213: real time      0.0214
    --------------------------------------------
      LOOP:  cpu time     64.2365: real time     64.5790

 eigenvalue-minimisations  :  4712
 total energy-change (2. order) : 0.8405867E-05  (-0.7660893E-05)
 number of electron     383.9998985 magnetization 
 augmentation part       29.1335180 magnetization 

 Broyden mixing:
  rms(total) = 0.22124E-02    rms(broyden)= 0.22113E-02
  rms(prec ) = 0.24210E-02
  weight for this iteration     100.00

 eigenvalues of (default mixing * dielectric matrix)
  average eigenvalue GAMMA=   1.5592
  2.9268  2.3991  2.3991  1.0122  1.0122  0.9381  0.8931  0.8931

 Free energy of the ion-electron system (eV)
  ---------------------------------------------------
  alpha Z        PSCENC =       465.46721903
  Ewald energy   TEWEN  =    -17714.22035223
  -Hartree energ DENC   =     -6497.55242328
  -exchange      EXHF   =         0.00000000
  -V(xc)+E(xc)   XCENC  =       540.92075200
  PAW double counting   =     26190.20318962   -25260.05581573
  entropy T*S    EENTRO =         0.00528584
  eigenvalues    EBANDS =      -750.67319227
  atomic energy  EATOM  =     22461.85434800
  Solvation  Ediel_sol  =         0.00000000
  ---------------------------------------------------
  free energy    TOTEN  =      -564.05098902 eV

  energy without entropy =     -564.05627485  energy(sigma->0) =     -564.05275096


--------------------------------------------------------------------------------------------------------




--------------------------------------- Iteration      1(  14)  ---------------------------------------


    POTLOK:  cpu time      0.3975: real time      0.3993
    SETDIJ:  cpu time      0.0868: real time      0.0871
     EDDAV:  cpu time     55.1848: real time     55.4649
       DOS:  cpu time      0.0025: real time      0.0025
    CHARGE:  cpu time      2.4206: real time      2.4335
    MIXING:  cpu time      0.0226: real time      0.0227
    --------------------------------------------
      LOOP:  cpu time     58.1146: real time     58.4100

 eigenvalue-minimisations  :  4192
 total energy-change (2. order) : 0.4323443E-05  (-0.4329332E-05)
 number of electron     383.9998985 magnetization 
 augmentation part       29.1317237 magnetization 

 Broyden mixing:
  rms(total) = 0.41157E-03    rms(broyden)= 0.40897E-03
  rms(prec ) = 0.49778E-03
  weight for this iteration     100.00

 eigenvalues of (default mixing * dielectric matrix)
  average eigenvalue GAMMA=   1.5391
  2.9945  2.6154  2.3354  1.2243  0.9983  0.9983  0.9178  0.8839  0.8839

 Free energy of the ion-electron system (eV)
  ---------------------------------------------------
  alpha Z        PSCENC =       465.46721903
  Ewald energy   TEWEN  =    -17714.22035223
  -Hartree energ DENC   =     -6497.75533062
  -exchange      EXHF   =         0.00000000
  -V(xc)+E(xc)   XCENC  =       540.93212392
  PAW double counting   =     26185.60358664   -25255.45722597
  entropy T*S    EENTRO =         0.00528453
  eigenvalues    EBANDS =      -750.48063800
  atomic energy  EATOM  =     22461.85434800
  Solvation  Ediel_sol  =         0.00000000
  ---------------------------------------------------
  free energy    TOTEN  =      -564.05098469 eV

  energy without entropy =     -564.05626922  energy(sigma->0) =     -564.05274620


--------------------------------------------------------------------------------------------------------




--------------------------------------- Iteration      1(  15)  ---------------------------------------


    POTLOK:  cpu time      0.4033: real time      0.4053
    SETDIJ:  cpu time      0.0782: real time      0.0785
     EDDAV:  cpu time     35.7671: real time     35.9635
       DOS:  cpu time      0.0026: real time      0.0026
    --------------------------------------------
      LOOP:  cpu time     36.2512: real time     36.4500

 eigenvalue-minimisations  :  2304
 total energy-change (2. order) : 0.1582521E-08  (-0.2092202E-06)
 number of electron     383.9998985 magnetization 
 augmentation part       29.1317237 magnetization 

 Free energy of the ion-electron system (eV)
  ---------------------------------------------------
  alpha Z        PSCENC =       465.46721903
  Ewald energy   TEWEN  =    -17714.22035223
  -Hartree energ DENC   =     -6497.70986952
  -exchange      EXHF   =         0.00000000
  -V(xc)+E(xc)   XCENC  =       540.92866326
  PAW double counting   =     26184.77484938   -25254.62718936
  entropy T*S    EENTRO =         0.00528482
  eigenvalues    EBANDS =      -750.52393807
  atomic energy  EATOM  =     22461.85434800
  Solvation  Ediel_sol  =         0.00000000
  ---------------------------------------------------
  free energy    TOTEN  =      -564.05098469 eV

  energy without entropy =     -564.05626951  energy(sigma->0) =     -564.05274630


--------------------------------------------------------------------------------------------------------




 average (electrostatic) potential at core
  the test charge radii are     1.0406  0.7215
  (the norm of the test charge is              1.0000)
       1 -75.3542       2 -75.3542       3 -75.3542       4 -75.3542       5 -75.3542
       6 -75.3542       7 -75.3542       8 -75.3542       9 -75.3542      10 -75.3542
      11 -75.3542      12 -75.3542      13 -75.3542      14 -75.3542      15 -75.3542
      16 -75.3542      17 -75.3542      18 -75.3542      19 -75.3542      20 -75.3542
      21 -75.3542      22 -75.3542      23 -75.3542      24 -75.3542      25 -75.3542
      26 -75.3542      27 -75.3542      28 -75.3542      29 -75.3542      30 -75.3542
      31 -75.3542      32 -75.3542      33 -69.6083      34 -69.6083      35 -69.6083
      36 -69.6083      37 -69.6083      38 -69.6083      39 -69.6083      40 -69.6083
      41 -69.6083      42 -69.6083      43 -69.6083      44 -69.6083      45 -69.6083
      46 -69.6083      47 -69.6083      48 -69.6083      49 -69.6083      50 -69.6083
      51 -69.6083      52 -69.6083      53 -69.6083      54 -69.6083      55 -69.6083
      56 -69.6083      57 -69.6083      58 -69.6083      59 -69.6083      60 -69.6083
      61 -69.6083      62 -69.6083      63 -69.6083      64 -69.6083      65 -69.5675
      66 -69.5675      67 -69.5675      68 -69.5675      69 -69.5675      70 -69.5675
      71 -69.5675      72 -69.5675      73 -69.5675      74 -69.5675      75 -69.5675
      76 -69.5675      77 -69.5675      78 -69.5675      79 -69.5675      80 -69.5675



 E-fermi :   3.6627     XC(G=0): -10.5135     alpha+bet :-12.9002

 Fermi energy:         3.6627127802

 k-point     1 :       0.1250    0.1250    0.1250
  band No.  band energies     occupation 
      1     -13.7533      2.00000
      2     -13.3663      2.00000
      3     -13.3578      2.00000
      4     -13.1432      2.00000
      5     -13.1427      2.00000
      6     -13.1329      2.00000
      7     -13.0292      2.00000
      8     -12.8514      2.00000
      9     -12.8499      2.00000
     10     -12.8125      2.00000
     11     -12.8040      2.00000
     12     -12.7159      2.00000
     13     -12.6732      2.00000
     14     -12.6376      2.00000
     15     -12.5312      2.00000
     16     -12.5124      2.00000
     17     -12.4981      2.00000
     18     -12.4571      2.00000
     19     -12.4219      2.00000
     20     -12.4081      2.00000
     21     -12.3589      2.00000
     22     -12.3570      2.00000
     23     -12.3471      2.00000
     24     -12.3121      2.00000
     25     -12.3060      2.00000
     26     -12.3015      2.00000
     27     -12.2755      2.00000
     28     -12.2502      2.00000
     29     -12.2372      2.00000
     30     -12.2126      2.00000
     31     -12.1855      2.00000
     32     -12.1532      2.00000
     33     -12.1071      2.00000
     34     -12.0781      2.00000
     35     -12.0769      2.00000
     36     -12.0698      2.00000
     37     -12.0673      2.00000
     38     -12.0464      2.00000
     39     -12.0446      2.00000
     40     -12.0441      2.00000
     41     -12.0070      2.00000
     42     -12.0061      2.00000
     43     -11.9940      2.00000
     44     -11.9777      2.00000
     45     -11.9506      2.00000
     46     -11.9209      2.00000
     47     -11.8860      2.00000
     48     -11.8704      2.00000
     49      -1.4641      2.00000
     50      -1.4275      2.00000
     51      -1.3207      2.00000
     52      -1.3107      2.00000
     53      -1.2913      2.00000
     54      -1.2507      2.00000
     55      -1.2178      2.00000
     56      -1.1447      2.00000
     57      -1.1182      2.00000
     58      -1.1100      2.00000
     59      -1.1039      2.00000
     60      -1.0766      2.00000
     61      -1.0650      2.00000
     62      -0.9854      2.00000
     63      -0.9756      2.00000
     64      -0.8982      2.00000
     65      -0.8064      2.00000
     66      -0.7154      2.00000
     67      -0.6757      2.00000
     68      -0.4964      2.00000
     69      -0.4017      2.00000
     70      -0.3866      2.00000
     71      -0.3320      2.00000
     72      -0.3135      2.00000
     73      -0.3098      2.00000
     74      -0.2302      2.00000
     75      -0.2141      2.00000
     76      -0.1695      2.00000
     77      -0.0837      2.00000
     78       0.0026      2.00000
     79       0.0160      2.00000
     80       0.1552      2.00000
     81       0.1969      2.00000
     82       0.2254      2.00000
     83       0.3293      2.00000
     84       0.3358      2.00000
     85       0.3392      2.00000
     86       0.3914      2.00000
     87       0.4152      2.00000
     88       0.4180      2.00000
     89       0.4219      2.00000
     90       0.4402      2.00000
     91       0.4816      2.00000
     92       0.4951      2.00000
     93       0.5149      2.00000
     94       0.5994      2.00000
     95       0.6137      2.00000
     96       0.7489      2.00000
     97       0.7552      2.00000
     98       0.7931      2.00000
     99       0.8651      2.00000
    100       0.9183      2.00000
    101       0.9852      2.00000
    102       1.0609      2.00000
    103       1.1140      2.00000
    104       1.1708      2.00000
    105       1.1725      2.00000
    106       1.2825      2.00000
    107       1.2883      2.00000
    108       1.3086      2.00000
    109       1.3535      2.00000
    110       1.4898      2.00000
    111       1.4975      2.00000
    112       1.5688      2.00000
    113       1.5824      2.00000
    114       1.5949      2.00000
    115       1.6776      2.00000
    116       1.6896      2.00000
    117       1.7037      2.00000
    118       1.7258      2.00000
    119       1.7881      2.00000
    120       1.8144      2.00000
    121       1.8365      2.00000
    122       1.8403      2.00000
    123       1.8563      2.00000
    124       1.9661      2.00000
    125       1.9733      2.00000
    126       1.9881      2.00000
    127       2.0774      2.00000
    128       2.1006      2.00000
    129       2.1517      2.00000
    130       2.1522      2.00000
    131       2.2594      2.00000
    132       2.3052      2.00000
    133       2.3101      2.00000
    134       2.3173      2.00000
    135       2.3407      2.00000
    136       2.4219      2.00000
    137       2.4372      2.00000
    138       2.4390      2.00000
    139       2.4770      2.00000
    140       2.4911      2.00000
    141       2.5114      2.00000
    142       2.5895      2.00000
    143       2.6095      2.00000
    144       2.6360      2.00000
    145       2.6442      2.00000
    146       2.6556      2.00000
    147       2.6754      2.00000
    148       2.7109      2.00000
    149       2.7408      2.00000
    150       2.7479      2.00000
    151       2.7579      2.00000
    152       2.7808      2.00000
    153       2.7955      2.00000
    154       2.8204      2.00000
    155       2.8348      2.00000
    156       2.8408      2.00000
    157       2.8877      2.00000
    158       2.9436      2.00000
    159       2.9561      2.00000
    160       2.9900      2.00000
    161       2.9967      2.00000
    162       3.0145      2.00000
    163       3.0197      2.00000
    164       3.0503      2.00000
    165       3.0872      2.00000
    166       3.1221      2.00000
    167       3.1338      2.00000
    168       3.1611      2.00000
    169       3.2020      2.00000
    170       3.2313      2.00000
    171       3.2391      2.00000
    172       3.2569      2.00000
    173       3.2698      2.00000
    174       3.2723      2.00000
    175       3.3133      2.00000
    176       3.3471      2.00000
    177       3.3637      2.00000
    178       3.3969      2.00000
    179       3.4264      2.00000
    180       3.4330      2.00000
    181       3.4932      2.00000
    182       3.5240      2.00000
    183       3.5282      2.00000
    184       3.5420      2.00000
    185       3.5447      2.00000
    186       3.5650      2.00000
    187       3.6020      2.00471
    188       3.6058      2.00834
    189       3.6174      2.03351
    190       3.6223      2.05038
    191       3.6407      2.00244
    192       3.6410      1.99771
    193       6.6024      0.00000
    194       8.5447      0.00000
    195       8.5930      0.00000
    196       9.2844      0.00000
    197       9.2983      0.00000
    198       9.4606      0.00000
    199       9.5830      0.00000
    200       9.7990      0.00000
    201       9.9009      0.00000
    202       9.9704      0.00000
    203      10.0549      0.00000
    204      10.1029      0.00000
    205      10.1624      0.00000
    206      10.2279      0.00000
    207      10.2842      0.00000
    208      10.2863      0.00000
    209      10.4181      0.00000
    210      10.4948      0.00000
    211      10.5200      0.00000
    212      10.5230      0.00000
    213      10.6327      0.00000
    214      10.6329      0.00000
    215      10.6675      0.00000
    216      10.6986      0.00000
    217      10.7752      0.00000
    218      10.8855      0.00000
[...]
     0.000000000 10.869672585  0.000000000     0.000000000  0.091999091  0.000000000
     0.000000000  0.000000000  7.725277309     0.000000000  0.000000000  0.129445191

  length of vectors
    10.569306466 10.869672585  7.725277309     0.094613587  0.091999091  0.129445191


 FORCES acting on ions
    electron-ion (+dipol)            ewald-force                    non-local-force                 convergence-correction
 -----------------------------------------------------------------------------------------------
   0.272E+01 -.235E+01 0.137E+02   -.272E+01 0.583E+00 -.130E+02   -.847E-02 0.138E+01 -.411E+00   0.291E-04 -.607E-05 0.947E-04
   0.272E+01 -.235E+01 0.137E+02   -.272E+01 0.583E+00 -.130E+02   -.847E-02 0.138E+01 -.411E+00   0.291E-04 -.231E-05 0.945E-04
   0.272E+01 -.235E+01 0.137E+02   -.272E+01 0.583E+00 -.130E+02   -.847E-02 0.138E+01 -.411E+00   0.272E-04 -.607E-05 0.946E-04
   0.272E+01 -.235E+01 0.137E+02   -.272E+01 0.583E+00 -.130E+02   -.847E-02 0.138E+01 -.411E+00   0.272E-04 -.231E-05 0.943E-04
   0.272E+01 0.235E+01 -.137E+02   -.272E+01 -.583E+00 0.130E+02   -.847E-02 -.138E+01 0.411E+00   0.291E-04 0.423E-05 -.938E-04
   0.272E+01 0.235E+01 -.137E+02   -.272E+01 -.583E+00 0.130E+02   -.847E-02 -.138E+01 0.411E+00   0.291E-04 0.416E-05 -.939E-04
   0.272E+01 0.235E+01 -.137E+02   -.272E+01 -.583E+00 0.130E+02   -.847E-02 -.138E+01 0.411E+00   0.272E-04 0.422E-05 -.937E-04
   0.272E+01 0.235E+01 -.137E+02   -.272E+01 -.583E+00 0.130E+02   -.847E-02 -.138E+01 0.411E+00   0.272E-04 0.416E-05 -.938E-04
   -.272E+01 -.235E+01 -.137E+02   0.272E+01 0.583E+00 0.130E+02   0.847E-02 0.138E+01 0.411E+00   -.272E-04 -.358E-05 -.949E-04
   -.272E+01 -.235E+01 -.137E+02   0.272E+01 0.583E+00 0.130E+02   0.847E-02 0.138E+01 0.411E+00   -.272E-04 -.475E-05 -.949E-04
   -.272E+01 -.235E+01 -.137E+02   0.272E+01 0.583E+00 0.130E+02   0.847E-02 0.138E+01 0.411E+00   -.292E-04 -.358E-05 -.950E-04
   -.272E+01 -.235E+01 -.137E+02   0.272E+01 0.583E+00 0.130E+02   0.847E-02 0.138E+01 0.411E+00   -.292E-04 -.475E-05 -.950E-04
   -.272E+01 0.235E+01 0.137E+02   0.272E+01 -.583E+00 -.130E+02   0.847E-02 -.138E+01 -.411E+00   -.272E-04 0.609E-05 0.943E-04
   -.272E+01 0.235E+01 0.137E+02   0.272E+01 -.583E+00 -.130E+02   0.847E-02 -.138E+01 -.411E+00   -.272E-04 0.224E-05 0.940E-04
   -.272E+01 0.235E+01 0.137E+02   0.272E+01 -.583E+00 -.130E+02   0.847E-02 -.138E+01 -.411E+00   -.292E-04 0.609E-05 0.944E-04
   -.272E+01 0.235E+01 0.137E+02   0.272E+01 -.583E+00 -.130E+02   0.847E-02 -.138E+01 -.411E+00   -.292E-04 0.224E-05 0.941E-04
   -.272E+01 0.235E+01 -.137E+02   0.272E+01 -.583E+00 0.130E+02   0.847E-02 -.138E+01 0.411E+00   -.281E-04 0.610E-05 -.939E-04
   -.272E+01 0.235E+01 -.137E+02   0.272E+01 -.583E+00 0.130E+02   0.847E-02 -.138E+01 0.411E+00   -.281E-04 0.224E-05 -.937E-04
   -.272E+01 0.235E+01 -.137E+02   0.272E+01 -.583E+00 0.130E+02   0.847E-02 -.138E+01 0.411E+00   -.282E-04 0.610E-05 -.940E-04
   -.272E+01 0.235E+01 -.137E+02   0.272E+01 -.583E+00 0.130E+02   0.847E-02 -.138E+01 0.411E+00   -.282E-04 0.224E-05 -.937E-04
   -.272E+01 -.235E+01 0.137E+02   0.272E+01 0.583E+00 -.130E+02   0.847E-02 0.138E+01 -.411E+00   -.281E-04 -.358E-05 0.945E-04
   -.272E+01 -.235E+01 0.137E+02   0.272E+01 0.583E+00 -.130E+02   0.847E-02 0.138E+01 -.411E+00   -.281E-04 -.475E-05 0.945E-04
   -.272E+01 -.235E+01 0.137E+02   0.272E+01 0.583E+00 -.130E+02   0.847E-02 0.138E+01 -.411E+00   -.282E-04 -.358E-05 0.946E-04
   -.272E+01 -.235E+01 0.137E+02   0.272E+01 0.583E+00 -.130E+02   0.847E-02 0.138E+01 -.411E+00   -.282E-04 -.475E-05 0.946E-04
   0.272E+01 0.235E+01 0.137E+02   -.272E+01 -.583E+00 -.130E+02   -.847E-02 -.138E+01 -.411E+00   0.283E-04 0.423E-05 0.942E-04
   0.272E+01 0.235E+01 0.137E+02   -.272E+01 -.583E+00 -.130E+02   -.847E-02 -.138E+01 -.411E+00   0.283E-04 0.416E-05 0.943E-04
   0.272E+01 0.235E+01 0.137E+02   -.272E+01 -.583E+00 -.130E+02   -.847E-02 -.138E+01 -.411E+00   0.281E-04 0.422E-05 0.941E-04
   0.272E+01 0.235E+01 0.137E+02   -.272E+01 -.583E+00 -.130E+02   -.847E-02 -.138E+01 -.411E+00   0.281E-04 0.415E-05 0.942E-04
   0.272E+01 -.235E+01 -.137E+02   -.272E+01 0.583E+00 0.130E+02   -.847E-02 0.138E+01 0.411E+00   0.283E-04 -.607E-05 -.951E-04
   0.272E+01 -.235E+01 -.137E+02   -.272E+01 0.583E+00 0.130E+02   -.847E-02 0.138E+01 0.411E+00   0.283E-04 -.231E-05 -.948E-04
   0.272E+01 -.235E+01 -.137E+02   -.272E+01 0.583E+00 0.130E+02   -.847E-02 0.138E+01 0.411E+00   0.281E-04 -.606E-05 -.950E-04
   0.272E+01 -.235E+01 -.137E+02   -.272E+01 0.583E+00 0.130E+02   -.847E-02 0.138E+01 0.411E+00   0.281E-04 -.231E-05 -.947E-04
   0.573E+01 0.279E+01 -.156E+02   -.451E+01 -.214E+01 0.161E+02   -.134E+01 -.770E+00 -.694E+00   -.783E-04 0.600E-04 -.640E-03
   0.573E+01 0.279E+01 -.156E+02   -.451E+01 -.214E+01 0.161E+02   -.134E+01 -.770E+00 -.694E+00   -.783E-04 0.681E-04 -.641E-03
   0.573E+01 0.279E+01 -.156E+02   -.451E+01 -.214E+01 0.161E+02   -.134E+01 -.770E+00 -.694E+00   -.822E-04 0.600E-04 -.640E-03
   0.573E+01 0.279E+01 -.156E+02   -.451E+01 -.214E+01 0.161E+02   -.134E+01 -.770E+00 -.694E+00   -.822E-04 0.681E-04 -.641E-03
   0.573E+01 -.279E+01 0.156E+02   -.451E+01 0.214E+01 -.161E+02   -.134E+01 0.770E+00 0.694E+00   -.783E-04 -.644E-04 0.642E-03
   0.573E+01 -.279E+01 0.156E+02   -.451E+01 0.214E+01 -.161E+02   -.134E+01 0.770E+00 0.694E+00   -.783E-04 -.636E-04 0.642E-03
   0.573E+01 -.279E+01 0.156E+02   -.451E+01 0.214E+01 -.161E+02   -.134E+01 0.770E+00 0.694E+00   -.822E-04 -.644E-04 0.642E-03
   0.573E+01 -.279E+01 0.156E+02   -.451E+01 0.214E+01 -.161E+02   -.134E+01 0.770E+00 0.694E+00   -.822E-04 -.637E-04 0.642E-03
   -.573E+01 0.279E+01 0.156E+02   0.451E+01 -.214E+01 -.161E+02   0.134E+01 -.770E+00 0.694E+00   0.823E-04 0.658E-04 0.642E-03
   -.573E+01 0.279E+01 0.156E+02   0.451E+01 -.214E+01 -.161E+02   0.134E+01 -.770E+00 0.694E+00   0.823E-04 0.624E-04 0.642E-03
   -.573E+01 0.279E+01 0.156E+02   0.451E+01 -.214E+01 -.161E+02   0.134E+01 -.770E+00 0.694E+00   0.778E-04 0.658E-04 0.642E-03
   -.573E+01 0.279E+01 0.156E+02   0.451E+01 -.214E+01 -.161E+02   0.134E+01 -.770E+00 0.694E+00   0.778E-04 0.624E-04 0.642E-03
   -.573E+01 -.279E+01 -.156E+02   0.451E+01 0.214E+01 0.161E+02   0.134E+01 0.770E+00 -.694E+00   0.823E-04 -.596E-04 -.643E-03
   -.573E+01 -.279E+01 -.156E+02   0.451E+01 0.214E+01 0.161E+02   0.134E+01 0.770E+00 -.694E+00   0.823E-04 -.686E-04 -.643E-03
   -.573E+01 -.279E+01 -.156E+02   0.451E+01 0.214E+01 0.161E+02   0.134E+01 0.770E+00 -.694E+00   0.778E-04 -.595E-04 -.643E-03
   -.573E+01 -.279E+01 -.156E+02   0.451E+01 0.214E+01 0.161E+02   0.134E+01 0.770E+00 -.694E+00   0.778E-04 -.686E-04 -.644E-03
   -.573E+01 -.279E+01 0.156E+02   0.451E+01 0.214E+01 -.161E+02   0.134E+01 0.770E+00 0.694E+00   0.795E-04 -.596E-04 0.641E-03
   -.573E+01 -.279E+01 0.156E+02   0.451E+01 0.214E+01 -.161E+02   0.134E+01 0.770E+00 0.694E+00   0.795E-04 -.686E-04 0.642E-03
   -.573E+01 -.279E+01 0.156E+02   0.451E+01 0.214E+01 -.161E+02   0.134E+01 0.770E+00 0.694E+00   0.813E-04 -.596E-04 0.642E-03
   -.573E+01 -.279E+01 0.156E+02   0.451E+01 0.214E+01 -.161E+02   0.134E+01 0.770E+00 0.694E+00   0.813E-04 -.686E-04 0.642E-03
   -.573E+01 0.279E+01 -.156E+02   0.451E+01 -.214E+01 0.161E+02   0.134E+01 -.770E+00 -.694E+00   0.795E-04 0.658E-04 -.640E-03
   -.573E+01 0.279E+01 -.156E+02   0.451E+01 -.214E+01 0.161E+02   0.134E+01 -.770E+00 -.694E+00   0.795E-04 0.624E-04 -.640E-03
   -.573E+01 0.279E+01 -.156E+02   0.451E+01 -.214E+01 0.161E+02   0.134E+01 -.770E+00 -.694E+00   0.813E-04 0.658E-04 -.641E-03
   -.573E+01 0.279E+01 -.156E+02   0.451E+01 -.214E+01 0.161E+02   0.134E+01 -.770E+00 -.694E+00   0.813E-04 0.624E-04 -.641E-03
   0.573E+01 -.279E+01 -.156E+02   -.451E+01 0.214E+01 0.161E+02   -.134E+01 0.770E+00 -.694E+00   -.790E-04 -.644E-04 -.643E-03
   0.573E+01 -.279E+01 -.156E+02   -.451E+01 0.214E+01 0.161E+02   -.134E+01 0.770E+00 -.694E+00   -.790E-04 -.636E-04 -.643E-03
   0.573E+01 -.279E+01 -.156E+02   -.451E+01 0.214E+01 0.161E+02   -.134E+01 0.770E+00 -.694E+00   -.816E-04 -.644E-04 -.643E-03
   0.573E+01 -.279E+01 -.156E+02   -.451E+01 0.214E+01 0.161E+02   -.134E+01 0.770E+00 -.694E+00   -.816E-04 -.637E-04 -.643E-03
   0.573E+01 0.279E+01 0.156E+02   -.451E+01 -.214E+01 -.161E+02   -.134E+01 -.770E+00 0.694E+00   -.791E-04 0.600E-04 0.641E-03
   0.573E+01 0.279E+01 0.156E+02   -.451E+01 -.214E+01 -.161E+02   -.134E+01 -.770E+00 0.694E+00   -.790E-04 0.681E-04 0.642E-03
   0.573E+01 0.279E+01 0.156E+02   -.451E+01 -.214E+01 -.161E+02   -.134E+01 -.770E+00 0.694E+00   -.816E-04 0.600E-04 0.641E-03
   0.573E+01 0.279E+01 0.156E+02   -.451E+01 -.214E+01 -.161E+02   -.134E+01 -.770E+00 0.694E+00   -.816E-04 0.681E-04 0.642E-03
   -.168E+02 -.542E-04 -.682E-04   0.173E+02 0.957E-05 0.327E-04   -.714E+00 -.853E-19 0.839E-19   -.237E-03 -.261E-05 -.167E-05
   -.168E+02 -.525E-04 -.651E-04   0.173E+02 -.343E-05 0.389E-05   -.714E+00 0.466E-18 -.962E-19   -.237E-03 0.260E-05 -.799E-06
   -.168E+02 -.542E-04 -.682E-04   0.173E+02 0.957E-05 0.327E-04   -.714E+00 0.335E-18 0.136E-18   -.240E-03 -.261E-05 -.167E-05
   -.168E+02 -.525E-04 -.651E-04   0.173E+02 -.343E-05 0.389E-05   -.714E+00 0.469E-18 -.156E-18   -.240E-03 0.260E-05 -.799E-06
   0.168E+02 -.539E-04 -.172E-04   -.173E+02 -.116E-05 -.152E-04   0.714E+00 0.330E-18 0.294E-19   0.240E-03 0.360E-05 0.863E-06
   0.168E+02 -.550E-04 -.141E-04   -.173E+02 0.126E-04 -.347E-04   0.714E+00 -.197E-18 0.147E-18   0.240E-03 -.361E-05 0.165E-05
   0.168E+02 -.539E-04 -.172E-04   -.173E+02 -.116E-05 -.152E-04   0.714E+00 0.330E-18 -.106E-18   0.237E-03 0.360E-05 0.863E-06
   0.168E+02 -.550E-04 -.141E-04   -.173E+02 0.126E-04 -.347E-04   0.714E+00 -.184E-18 0.427E-19   0.237E-03 -.361E-05 0.165E-05
   0.168E+02 -.535E-04 -.241E-04   -.173E+02 -.319E-05 0.956E-05   0.714E+00 -.271E-18 -.152E-18   0.238E-03 0.360E-05 -.846E-06
   0.168E+02 -.546E-04 -.273E-04   -.173E+02 0.106E-04 0.291E-04   0.714E+00 0.107E-18 -.264E-19   0.238E-03 -.361E-05 -.163E-05
   0.168E+02 -.535E-04 -.241E-04   -.173E+02 -.319E-05 0.956E-05   0.714E+00 -.285E-18 -.306E-18   0.240E-03 0.360E-05 -.846E-06
   0.168E+02 -.546E-04 -.273E-04   -.173E+02 0.106E-04 0.291E-04   0.714E+00 -.344E-18 -.773E-19   0.240E-03 -.361E-05 -.163E-05
   -.168E+02 -.564E-04 -.551E-04   0.173E+02 0.116E-04 -.383E-04   -.714E+00 0.260E-18 0.131E-18   -.237E-03 -.261E-05 0.169E-05
   -.168E+02 -.546E-04 -.581E-04   0.173E+02 -.140E-05 -.950E-05   -.714E+00 -.233E-18 -.131E-18   -.237E-03 0.260E-05 0.817E-06
   -.168E+02 -.564E-04 -.551E-04   0.173E+02 0.116E-04 -.383E-04   -.714E+00 0.246E-18 0.126E-18   -.240E-03 -.261E-05 0.169E-05
   -.168E+02 -.546E-04 -.581E-04   0.173E+02 -.140E-05 -.950E-05   -.714E+00 0.194E-18 0.168E-18   -.240E-03 0.260E-05 0.817E-06
 -----------------------------------------------------------------------------------------------
   0.569E-02 -.279E-02 -.870E-03   -.249E-13 -.194E-13 0.850E-14   0.300E-14 0.667E-15 0.444E-15   0.128E-06 -.508E-08 0.133E-07


 POSITION                                       TOTAL-FORCE (eV/Angst)
 -----------------------------------------------------------------------------------
      1.33332      0.17062      3.01277        -0.004275     -0.393942      0.291057
      1.33332      5.60546      3.01277        -0.004275     -0.393942      0.291057
      6.61798      0.17062      3.01277        -0.004275     -0.393942      0.291057
      6.61798      5.60546      3.01277        -0.004275     -0.393942      0.291057
      1.33332      2.54679      4.71251        -0.004275      0.393942     -0.291057
      1.33332      7.98163      4.71251        -0.004275      0.393942     -0.291057
      6.61798      2.54679      4.71251        -0.004275      0.393942     -0.291057
      6.61798      7.98163      4.71251        -0.004275      0.393942     -0.291057
      1.30900      2.88804      0.84987         0.004275     -0.393942     -0.291057
      1.30900      8.32288      0.84987         0.004275     -0.393942     -0.291057
      6.59366      2.88804      0.84987         0.004275     -0.393942     -0.291057
      6.59366      8.32288      0.84987         0.004275     -0.393942     -0.291057
      1.30900      5.26421      6.87541         0.004275      0.393942      0.291057
      1.30900     10.69905      6.87541         0.004275      0.393942      0.291057
      6.59366      5.26421      6.87541         0.004275      0.393942      0.291057
      6.59366     10.69905      6.87541         0.004275      0.393942      0.291057
      3.95133      5.26421      4.71251         0.004275      0.393942     -0.291057
      3.95133     10.69905      4.71251         0.004275      0.393942     -0.291057
      9.23598      5.26421      4.71251         0.004275      0.393942     -0.291057
      9.23598     10.69905      4.71251         0.004275      0.393942     -0.291057
      3.95133      2.88804      3.01277         0.004275     -0.393942      0.291057
      3.95133      8.32288      3.01277         0.004275     -0.393942      0.291057
      9.23598      2.88804      3.01277         0.004275     -0.393942      0.291057
      9.23598      8.32288      3.01277         0.004275     -0.393942      0.291057
      3.97565      2.54679      6.87541        -0.004275      0.393942      0.291057
      3.97565      7.98163      6.87541        -0.004275      0.393942      0.291057
      9.26030      2.54679      6.87541        -0.004275      0.393942      0.291057
      9.26030      7.98163      6.87541        -0.004275      0.393942      0.291057
      3.97565      0.17062      0.84987        -0.004275     -0.393942     -0.291057
      3.97565      5.60546      0.84987        -0.004275     -0.393942     -0.291057
      9.26030      0.17062      0.84987        -0.004275     -0.393942     -0.291057
      9.26030      5.60546      0.84987        -0.004275     -0.393942     -0.291057
      0.56584      0.55648      5.05348        -0.121098     -0.125959     -0.181621
      0.56584      5.99131      5.05348        -0.121098     -0.125959     -0.181621
      5.85049      0.55648      5.05348        -0.121098     -0.125959     -0.181621
      5.85049      5.99131      5.05348        -0.121098     -0.125959     -0.181621
      0.56584      2.16094      2.67180        -0.121098      0.125959      0.181621
      0.56584      7.59578      2.67180        -0.121098      0.125959      0.181621
      5.85049      2.16094      2.67180        -0.121098      0.125959      0.181621
      5.85049      7.59578      2.67180        -0.121098      0.125959      0.181621
      2.07649      3.27390      6.53444         0.121098     -0.125959      0.181621
      2.07649      8.70873      6.53444         0.121098     -0.125959      0.181621
      7.36114      3.27390      6.53444         0.121098     -0.125959      0.181621
      7.36114      8.70873      6.53444         0.121098     -0.125959      0.181621
      2.07649      4.87836      1.19084         0.121098      0.125959     -0.181621
      2.07649     10.31319      1.19084         0.121098      0.125959     -0.181621
      7.36114      4.87836      1.19084         0.121098      0.125959     -0.181621
      7.36114     10.31319      1.19084         0.121098      0.125959     -0.181621
      4.71881      4.87836      2.67180         0.121098      0.125959      0.181621
      4.71881     10.31319      2.67180         0.121098      0.125959      0.181621
     10.00347      4.87836      2.67180         0.121098      0.125959      0.181621
     10.00347     10.31319      2.67180         0.121098      0.125959      0.181621
      4.71881      3.27390      5.05348         0.121098     -0.125959     -0.181621
      4.71881      8.70873      5.05348         0.121098     -0.125959     -0.181621
     10.00347      3.27390      5.05348         0.121098     -0.125959     -0.181621
     10.00347      8.70873      5.05348         0.121098     -0.125959     -0.181621
      3.20817      2.16094      1.19084        -0.121098      0.125959     -0.181621
      3.20817      7.59578      1.19084        -0.121098      0.125959     -0.181621
      8.49282      2.16094      1.19084        -0.121098      0.125959     -0.181621
      8.49282      7.59578      1.19084        -0.121098      0.125959     -0.181621
      3.20817      0.55648      6.53444        -0.121098     -0.125959      0.181621
      3.20817      5.99131      6.53444        -0.121098     -0.125959      0.181621
      8.49282      0.55648      6.53444        -0.121098     -0.125959      0.181621
      8.49282      5.99131      6.53444        -0.121098     -0.125959      0.181621
      0.26523      1.35871      0.00000        -0.232437      0.000000      0.000000
      0.26523      6.79355      0.00000        -0.232437      0.000000      0.000000
      5.54988      1.35871      0.00000        -0.232437      0.000000      0.000000
      5.54988      6.79355      0.00000        -0.232437      0.000000      0.000000
      2.37710      4.07613      3.86264         0.232437      0.000000      0.000000
      2.37710      9.51096      3.86264         0.232437      0.000000      0.000000
      7.66175      4.07613      3.86264         0.232437      0.000000      0.000000
      7.66175      9.51096      3.86264         0.232437      0.000000      0.000000
      5.01943      4.07613      0.00000         0.232437      0.000000      0.000000
      5.01943      9.51096      0.00000         0.232437      0.000000      0.000000
     10.30408      4.07613      0.00000         0.232437      0.000000      0.000000
     10.30408      9.51096      0.00000         0.232437      0.000000      0.000000
      2.90755      1.35871      3.86264        -0.232437      0.000000      0.000000
      2.90755      6.79355      3.86264        -0.232437      0.000000      0.000000
      8.19221      1.35871      3.86264        -0.232437      0.000000      0.000000
      8.19221      6.79355      3.86264        -0.232437      0.000000      0.000000
 -----------------------------------------------------------------------------------
    total drift:                                0.005693     -0.002790     -0.000870


--------------------------------------------------------------------------------------------------------



  FREE ENERGIE OF THE ION-ELECTRON SYSTEM (eV)
  ---------------------------------------------------
  free  energy   TOTEN  =      -564.05098469 eV

  energy  without entropy=     -564.05626951  energy(sigma->0) =     -564.05274630



--------------------------------------------------------------------------------------------------------


    POTLOK:  cpu time      0.4547: real time      0.4704


--------------------------------------------------------------------------------------------------------


 writing wavefunctions
     LOOP+:  cpu time    924.5212: real time    930.6785
    4ORBIT:  cpu time      0.0000: real time      0.0000

 total amount of memory used by VASP MPI-rank0   630264. kBytes
=======================================================================

   base      :      30000. kBytes
   nonlr-proj:       8938. kBytes
   fftplans  :      32556. kBytes
   grid      :      57900. kBytes
   one-center:        245. kBytes
   wavefun   :     500625. kBytes

  
  
 General timing and accounting informations for this job:
 ========================================================
  
                  Total CPU time used (sec):      935.565
                            User time (sec):      932.864
                          System time (sec):        2.701
                         Elapsed time (sec):      941.888
  
                   Maximum memory used (kb):      824088.
                   Average memory used (kb):          N/A
  
                          Minor page faults:       418547
                          Major page faults:           98
                 Voluntary context switches:          822
