 vasp.6.1.0 28Jan20 (build Mar 09 2020 14:40:17) complex                        
  
 executed on             LinuxIFC date 2024.01.18  14:58:04
 running on    1 total cores
 distrk:  each k-point on    1 cores,    1 groups
 distr:  one band on NCORE=   1 cores,    1 groups


--------------------------------------------------------------------------------------------------------


 INCAR:
 POTCAR:    PAW_PBE Al 04Jan2001                  
 POTCAR:    PAW_PBE O 08Apr2002                   
 POTCAR:    PAW_PBE Al 04Jan2001                  
   SHA256 =  17880443556af62b473fe41b62a467bd001ad55d2cabe504a3f22e34d4e9db96 Al/POTCAR             
   COPYR  = (c) Copyright 04Jan2001 Georg Kresse                                                    
   COPYR  = This file is part of the software VASP. Any use, copying, and all other rights are regul
   COPYR  = If you do not have a valid VASP license, you may not use, copy or distribute this file. 
   VRHFIN =Al: s2p1                                                                                 
   LEXCH  = PE                                                                                      
   EATOM  =    53.5387 eV,    3.9350 Ry                                                             
                                                                                                    
   TITEL  = PAW_PBE Al 04Jan2001                                                                    
   LULTRA =        F    use ultrasoft PP ?                                                          
   IUNSCR =        1    unscreen: 0-lin 1-nonlin 2-no                                               
   RPACOR =    1.500    partial core radius                                                         
   POMASS =   26.981; ZVAL   =    3.000    mass and valenz                                          
   RCORE  =    1.900    outmost cutoff radius                                                       
   RWIGS  =    2.650; RWIGS  =    1.402    wigner-seitz radius (au A)                               
   ENMAX  =  240.300; ENMIN  =  180.225 eV                                                          
   ICORE  =        2    local potential                                                             
   LCOR   =        T    correct aug charges                                                         
   LPAW   =        T    paw PP                                                                      
   EAUG   =  291.052                                                                                
   DEXC   =    0.000                                                                                
   RMAX   =    1.939    core radius for proj-oper                                                   
   RAUG   =    1.300    factor for augmentation sphere                                              
   RDEP   =    1.966    radius for radial grids                                                     
   RDEPT  =    1.856    core radius for aug-charge                                                  
                                                                                                    
   Atomic configuration                                                                             
    6 entries                                                                                       
     n  l   j            E        occ.                                                              
     1  0  0.50     -1511.1048   2.0000                                                             
     2  0  0.50      -108.1629   2.0000                                                             
     2  1  1.50       -69.6402   6.0000                                                             
     3  0  0.50        -7.7528   2.0000                                                             
     3  1  1.50        -2.7121   1.0000                                                             
     3  2  2.50        -2.7212   0.0000                                                             
   Description                                                                                      
     l       E           TYP  RCUT    TYP  RCUT                                                     
     0     -7.7528455     23  1.900                                                                 
     0     -3.3096929     23  1.900                                                                 
     1     -2.7120682     23  1.900                                                                 
     1     13.6058260     23  1.900                                                                 
     2     -2.7211652      7  1.900                                                                 
  local pseudopotential read in
  partial core-charges read in
  partial kinetic energy density read in
  atomic valenz-charges read in
  non local Contribution for L=           0  read in
    real space projection operators read in
  non local Contribution for L=           0  read in
    real space projection operators read in
  non local Contribution for L=           1  read in
    real space projection operators read in
  non local Contribution for L=           1  read in
    real space projection operators read in
    PAW grid and wavefunctions read in
 
   number of l-projection  operators is LMAX  =           4
   number of lm-projection operators is LMMAX =           8
 
 POTCAR:    PAW_PBE O 08Apr2002                   
   SHA256 =  818f92134a0a090dccd8ba1447fa70422a3b330e708bb4f08108d8ae51209ddf O/POTCAR              
   COPYR  = (c) Copyright 08Apr2002 Georg Kresse                                                    
   COPYR  = This file is part of the software VASP. Any use, copying, and all other rights are regul
   COPYR  = If you do not have a valid VASP license, you may not use, copy or distribute this file. 
   VRHFIN =O: s2p4                                                                                  
   LEXCH  = PE                                                                                      
   EATOM  =   432.3788 eV,   31.7789 Ry                                                             
                                                                                                    
   TITEL  = PAW_PBE O 08Apr2002                                                                     
   LULTRA =        F    use ultrasoft PP ?                                                          
   IUNSCR =        1    unscreen: 0-lin 1-nonlin 2-no                                               
   RPACOR =    1.200    partial core radius                                                         
   POMASS =   16.000; ZVAL   =    6.000    mass and valenz                                          
   RCORE  =    1.520    outmost cutoff radius                                                       
   RWIGS  =    1.550; RWIGS  =    0.820    wigner-seitz radius (au A)                               
   ENMAX  =  400.000; ENMIN  =  300.000 eV                                                          
   ICORE  =        2    local potential                                                             
   LCOR   =        T    correct aug charges                                                         
   LPAW   =        T    paw PP                                                                      
   EAUG   =  605.392                                                                                
   DEXC   =    0.000                                                                                
   RMAX   =    1.553    core radius for proj-oper                                                   
   RAUG   =    1.300    factor for augmentation sphere                                              
   RDEP   =    1.550    radius for radial grids                                                     
   RDEPT  =    1.329    core radius for aug-charge                                                  
                                                                                                    
   Atomic configuration                                                                             
    4 entries                                                                                       
     n  l   j            E        occ.                                                              
     1  0  0.50      -514.6923   2.0000                                                             
     2  0  0.50       -23.9615   2.0000                                                             
     2  1  0.50        -9.0305   4.0000                                                             
     3  2  1.50        -9.5241   0.0000                                                             
   Description                                                                                      
     l       E           TYP  RCUT    TYP  RCUT                                                     
     0    -23.9615318     23  1.200                                                                 
     0     -9.5240782     23  1.200                                                                 
     1     -9.0304911     23  1.520                                                                 
     1      8.1634956     23  1.520                                                                 
     2     -9.5240782      7  1.500                                                                 
  local pseudopotential read in
  partial core-charges read in
  partial kinetic energy density read in
  kinetic energy density of atom read in
  atomic valenz-charges read in
  non local Contribution for L=           0  read in
    real space projection operators read in
  non local Contribution for L=           0  read in
    real space projection operators read in
  non local Contribution for L=           1  read in
    real space projection operators read in
  non local Contribution for L=           1  read in
    real space projection operators read in
    PAW grid and wavefunctions read in
 
   number of l-projection  operators is LMAX  =           4
   number of lm-projection operators is LMMAX =           8
 
 Optimization of the real space projectors (new method)

 maximal supplied QI-value         = 19.84
 optimisation between [QCUT,QGAM] = [ 10.12, 20.44] = [ 28.68,116.96] Ry 
 Optimized for a Real-space Cutoff    1.23 Angstroem

   l    n(q)    QCUT    max X(q) W(low)/X(q) W(high)/X(q)  e(spline) 
   0      7    10.119   176.870    0.49E-04    0.18E-03    0.39E-07
   0      7    10.119   105.762    0.46E-04    0.18E-03    0.38E-07
   1      7    10.119    55.370    0.30E-03    0.37E-03    0.12E-06
   1      7    10.119    20.208    0.27E-03    0.35E-03    0.11E-06
 Optimization of the real space projectors (new method)

 maximal supplied QI-value         = 24.76
 optimisation between [QCUT,QGAM] = [ 10.15, 20.30] = [ 28.85,115.39] Ry 
 Optimized for a Real-space Cutoff    1.38 Angstroem

   l    n(q)    QCUT    max X(q) W(low)/X(q) W(high)/X(q)  e(spline) 
   0      8    10.150    20.381    0.22E-03    0.32E-03    0.29E-06
   0      8    10.150    15.268    0.23E-03    0.35E-03    0.30E-06
   1      8    10.150     5.964    0.46E-03    0.53E-03    0.21E-06
   1      8    10.150     5.382    0.38E-03    0.45E-03    0.19E-06
  PAW_PBE Al 04Jan2001                  :
 energy of atom  1       EATOM=  -53.5387
 kinetic energy error for atom=    0.0005 (will be added to EATOM!!)
  PAW_PBE O 08Apr2002                   :
 energy of atom  2       EATOM= -432.3788
 kinetic energy error for atom=    0.1156 (will be added to EATOM!!)
 
 
 POSCAR:    Al  O
  positions in direct lattice
  No initial velocities read in
 exchange correlation table for  LEXCH =        8
   RHO(1)=    0.500       N(1)  =     2000
   RHO(2)=  100.500       N(2)  =     4000

 VTST: version 3.2, (02/03/18)

 CHAIN: initializing optimizer
 
 OPT: Using VASP Dynamics algorithm
 CHAIN: Read ICHAIN            0
 
 POSCAR:    Al  O
  positions in direct lattice
  No initial velocities read in
 


--------------------------------------------------------------------------------------------------------


 ion  position               nearest neighbor table
   1  0.252  0.031  0.390-  18 1.85  13 1.87  12 1.90  20 1.95  10 1.96   9 2.01   2 2.65   5 2.85
                             5 2.88   8 3.10   8 3.10   3 3.15   3 3.15   2 3.17
   2  0.252  0.469  0.610-  18 1.85  14 1.87  11 1.90  20 1.95   9 1.96  10 2.01   1 2.65   6 2.85
                             6 2.88   7 3.10   7 3.10   4 3.15   4 3.15   1 3.17
   3  0.248  0.531  0.110-  17 1.85  15 1.87  10 1.90  19 1.95  12 1.96  11 2.01   4 2.65   7 2.85
                             7 2.88   6 3.10   6 3.10   1 3.15   1 3.15   4 3.17
   4  0.248  0.969  0.890-  17 1.85  16 1.87   9 1.90  19 1.95  11 1.96  12 2.01   3 2.65   8 2.85
                             8 2.88   5 3.10   5 3.10   2 3.15   2 3.15   3 3.17
   5  0.748  0.969  0.610-  20 1.85   9 1.87  16 1.90  18 1.95  14 1.96  13 2.01   6 2.65   1 2.85
                             1 2.88   4 3.10   4 3.10   7 3.15   7 3.15   6 3.17
   6  0.748  0.531  0.390-  20 1.85  10 1.87  15 1.90  18 1.95  13 1.96  14 2.01   5 2.65   2 2.85
                             2 2.88   3 3.10   3 3.10   8 3.15   8 3.15   5 3.17
   7  0.752  0.469  0.890-  19 1.85  11 1.87  14 1.90  17 1.95  16 1.96  15 2.01   8 2.65   3 2.85
                             3 2.88   2 3.10   2 3.10   5 3.15   5 3.15   8 3.17
   8  0.752  0.031  0.110-  19 1.85  12 1.87  13 1.90  17 1.95  15 1.96  16 2.01   7 2.65   4 2.85
                             4 2.88   1 3.10   1 3.10   6 3.15   6 3.15   7 3.17
   9  0.107  0.102  0.654-   5 1.87   4 1.90   2 1.96   1 2.01
  10  0.107  0.398  0.346-   6 1.87   3 1.90   1 1.96   2 2.01
  11  0.393  0.602  0.846-   7 1.87   2 1.90   4 1.96   3 2.01
  12  0.393  0.898  0.154-   8 1.87   1 1.90   3 1.96   4 2.01
  13  0.893  0.898  0.346-   1 1.87   8 1.90   6 1.96   5 2.01
  14  0.893  0.602  0.654-   2 1.87   7 1.90   5 1.96   6 2.01
  15  0.607  0.398  0.154-   3 1.87   6 1.90   8 1.96   7 2.01
  16  0.607  0.102  0.846-   4 1.87   5 1.90   7 1.96   8 2.01
  17  0.050  0.250  0.000-   3 1.85   4 1.85   8 1.95   7 1.95
  18  0.450  0.750  0.500-   1 1.85   2 1.85   6 1.95   5 1.95
  19  0.950  0.750  0.000-   8 1.85   7 1.85   3 1.95   4 1.95
  20  0.550  0.250  0.500-   6 1.85   5 1.85   2 1.95   1 1.95
 
  LATTYP: Found a simple orthorhombic cell.
 ALAT       =     4.7905297258
 B/A-ratio  =     1.0284415337
 C/A-ratio  =     1.4618613431
  
  Lattice vectors:
  
 A1 = (   4.7905297258,   0.0000000000,   0.0000000000)
 A2 = (   0.0000000000,   4.9267797382,   0.0000000000)
 A3 = (   0.0000000000,   0.0000000000,   7.0030902190)


Analysis of symmetry for initial positions (statically):
=====================================================================
 Subroutine PRICEL returns:
 Original cell was already a primitive cell.
 

 Routine SETGRP: Setting up the symmetry group for a 
 simple orthorhombic supercell.


 Subroutine GETGRP returns: Found  8 space group operations
 (whereof  2 operations were pure point group operations)
 out of a pool of  8 trial point group operations.


The static configuration has the point symmetry S_2 .
 The point group associated with its full space group is D_2h.


Analysis of symmetry for dynamics (positions and initial velocities):
=====================================================================
 Subroutine PRICEL returns:
 Original cell was already a primitive cell.
 

 Routine SETGRP: Setting up the symmetry group for a 
 simple orthorhombic supercell.


 Subroutine GETGRP returns: Found  8 space group operations
 (whereof  2 operations were pure point group operations)
 out of a pool of  8 trial point group operations.


The dynamic configuration has the point symmetry S_2 .
 The point group associated with its full space group is D_2h.


Analysis of constrained symmetry for selective dynamics:
=====================================================================
 Subroutine PRICEL returns:
 Original cell was already a primitive cell.
 

 Routine SETGRP: Setting up the symmetry group for a 
 simple orthorhombic supercell.


 Subroutine GETGRP returns: Found  8 space group operations
 (whereof  2 operations were pure point group operations)
 out of a pool of  8 trial point group operations.


The constrained configuration has the point symmetry S_2 .
 The point group associated with its full space group is D_2h.


 Subroutine INISYM returns: Found  8 space group operations
 (whereof  2 operations are pure point group operations),
 and found     1 'primitive' translations


----------------------------------------------------------------------------------------

                                     Primitive cell                                     

  volume of cell :     165.2861

  direct lattice vectors                    reciprocal lattice vectors
     4.790529726  0.000000000  0.000000000     0.208745182  0.000000000  0.000000000
     0.000000000  4.926779738  0.000000000     0.000000000  0.202972338  0.000000000
     0.000000000  0.000000000  7.003090219     0.000000000  0.000000000  0.142794105

  length of vectors
     4.790529726  4.926779738  7.003090219     0.208745182  0.202972338  0.142794105

  position of ions in fractional coordinates (direct lattice)
     0.252300235  0.031396366  0.389988577
     0.252300235  0.468603632  0.610011423
     0.247699765  0.531396368  0.110011408
     0.247699765  0.968603632  0.889988577
     0.747699735  0.968603632  0.610011423
     0.747699735  0.531396368  0.389988577
     0.752300265  0.468603632  0.889988577
     0.752300265  0.031396366  0.110011408
     0.107072754  0.102389751  0.654147657
     0.107072754  0.397610242  0.345852343
     0.392927238  0.602389729  0.845852343
     0.392927238  0.897610271  0.154147642
     0.892927268  0.897610271  0.345852343
     0.892927268  0.602389729  0.654147657
     0.607072732  0.397610242  0.154147642
     0.607072732  0.102389751  0.845852343
     0.050188369  0.250000000  0.000000000
     0.449811635  0.750000000  0.500000000
     0.949811605  0.750000000  0.000000000
     0.550188395  0.250000000  0.500000000

  ion indices of the primitive-cell ions
   primitive index   ion index
                 1           1
                 2           2
                 3           3
                 4           4
                 5           5
                 6           6
                 7           7
                 8           8
                 9           9
                10          10
                11          11
                12          12
                13          13
                14          14
                15          15
                16          16
                17          17
                18          18
                19          19
                20          20

----------------------------------------------------------------------------------------

 
 
 KPOINTS: k-points                                

Automatic generation of k-mesh.
Space group operators:
 irot       det(A)        alpha          n_x          n_y          n_z        tau_x        tau_y        tau_z
    1     1.000000     0.000000     1.000000     0.000000     0.000000     0.000000     0.000000     0.000000
    2    -1.000000     0.000000     1.000000     0.000000     0.000000     0.000000     0.000000     0.000000
    3     1.000000   180.000000     0.000000     0.000000     1.000000    -0.500000     0.000000    -0.500000
    4    -1.000000   180.000000     0.000000     0.000000     1.000000     0.500000     0.000000     0.500000
    5     1.000000   180.000000     0.000000     1.000000     0.000000    -0.500000    -0.500000     0.500000
    6    -1.000000   180.000000     0.000000     1.000000     0.000000     0.500000     0.500000    -0.500000
    7     1.000000   180.000000     1.000000     0.000000     0.000000     0.000000     0.500000     0.000000
    8    -1.000000   180.000000     1.000000     0.000000     0.000000     0.000000    -0.500000     0.000000
 
 Subroutine IBZKPT returns following result:
 ===========================================
 
 Found      8 irreducible k-points:
 
 Following reciprocal coordinates:
            Coordinates               Weight
  0.125000  0.125000  0.125000      8.000000
  0.375000  0.125000  0.125000      8.000000
  0.125000  0.375000  0.125000      8.000000
  0.375000  0.375000  0.125000      8.000000
  0.125000  0.125000  0.375000      8.000000
  0.375000  0.125000  0.375000      8.000000
  0.125000  0.375000  0.375000      8.000000
  0.375000  0.375000  0.375000      8.000000
 
 Following cartesian coordinates:
            Coordinates               Weight
  0.026093  0.025372  0.017849      8.000000
  0.078279  0.025372  0.017849      8.000000
  0.026093  0.076115  0.017849      8.000000
  0.078279  0.076115  0.017849      8.000000
  0.026093  0.025372  0.053548      8.000000
  0.078279  0.025372  0.053548      8.000000
  0.026093  0.076115  0.053548      8.000000
  0.078279  0.076115  0.053548      8.000000
 


--------------------------------------------------------------------------------------------------------




 Dimension of arrays:
   k-points           NKPTS =      8   k-points in BZ     NKDIM =      8   number of bands    NBANDS=     59
   number of dos      NEDOS =    301   number of ions     NIONS =     20
   non local maximal  LDIM  =      4   non local SUM 2l+1 LMDIM =      8
   total plane-waves  NPLWV =  20736
   max r-space proj   IRMAX =   1432   max aug-charges    IRDMAX=   5082
   dimension x,y,z NGX =    24 NGY =   24 NGZ =   36
   dimension x,y,z NGXF=    48 NGYF=   48 NGZF=   72
   support grid    NGXF=    48 NGYF=   48 NGZF=   72
   ions per type =               8  12
   NGX,Y,Z   is equivalent  to a cutoff of   8.33,  8.10,  8.55 a.u.
   NGXF,Y,Z  is equivalent  to a cutoff of  16.66, 16.20, 17.09 a.u.

 SYSTEM =  Alumina_orthorombic_cell_under_strain   
 POSCAR =     Al  O                                

 Startparameter for this run:
   NWRITE =      2    write-flag & timer
   PREC   = normal    normal or accurate (medium, high low for compatibility)
   ISTART =      0    job   : 0-new  1-cont  2-samecut
   ICHARG =      2    charge: 1-file 2-atom 10-const
   ISPIN  =      1    spin polarized calculation?
   LNONCOLLINEAR =      F non collinear calculations
   LSORBIT =      F    spin-orbit coupling
   INIWAV =      1    electr: 0-lowe 1-rand  2-diag
   LASPH  =      F    aspherical Exc in radial PAW
   METAGGA=      F    non-selfconsistent MetaGGA calc.

 Electronic Relaxation 1
   ENCUT  =  400.0 eV  29.40 Ry    5.42 a.u.   7.81  8.03 11.42*2*pi/ulx,y,z
   ENINI  =  400.0     initial cutoff
   ENAUG  =  605.4 eV  augmentation charge cutoff
   NELM   =    100;   NELMIN=  2; NELMDL= -5     # of ELM steps 
   EDIFF  = 0.1E-05   stopping-criterion for ELM
   LREAL  =      T    real-space projection
   NLSPLINE    = F    spline interpolate recip. space projectors
   LCOMPAT=      F    compatible to vasp.4.4
   GGA_COMPAT  = T    GGA compatible to vasp.4.4-vasp.4.6
   LMAXPAW     = -100 max onsite density
   LMAXMIX     =    2 max onsite mixed and CHGCAR
   VOSKOWN=      0    Vosko Wilk Nusair interpolation
   ROPT   =   -0.00050  -0.00050
 Ionic relaxation
   EDIFFG = -.1E-02   stopping-criterion for IOM
   NSW    =      0    number of steps for IOM
   NBLOCK =      1;   KBLOCK =      1    inner block; outer block 
   IBRION =     -1    ionic relax: 0-MD 1-quasi-New 2-CG
   NFREE  =      0    steps in history (QN), initial steepest desc. (CG)
   ISIF   =      2    stress and relaxation
   IWAVPR =     10    prediction:  0-non 1-charg 2-wave 3-comb
   ISYM   =      2    0-nonsym 1-usesym 2-fastsym
   LCORR  =      T    Harris-Foulkes like correction to forces

   POTIM  = 0.5000    time-step for ionic-motion
   TEIN   =    0.0    initial temperature
   TEBEG  =    0.0;   TEEND  =   0.0 temperature during run
   SMASS  =  -3.00    Nose mass-parameter (am)
   estimated Nose-frequenzy (Omega)   =  0.10E-29 period in steps = 0.13E+47 mass=  -0.524E-27a.u.
   SCALEE = 1.0000    scale energy and forces
   NPACO  =    256;   APACO  = 16.0  distance and # of slots for P.C.
   PSTRESS=    0.0 pullay stress

  Mass of Ions in am
   POMASS =  26.98 16.00
  Ionic Valenz
   ZVAL   =   3.00  6.00
  Atomic Wigner-Seitz radii
   RWIGS  =  -1.00 -1.00
  virtual crystal weights 
   VCA    =   1.00  1.00
   NELECT =      96.0000    total number of electrons
   NUPDOWN=      -1.0000    fix difference up-down

 DOS related values:
   EMIN   =  10.00;   EMAX   =-10.00  energy-range for DOS
   EFERMI =   0.00
   ISMEAR =     1;   SIGMA  =   0.03  broadening in eV -4-tet -1-fermi 0-gaus

 Electronic relaxation 2 (details)
   IALGO  =     38    algorithm
   LDIAG  =      T    sub-space diagonalisation (order eigenvalues)
   LSUBROT=      F    optimize rotation matrix (better conditioning)
   TURBO    =      0    0=normal 1=particle mesh
   IRESTART =      0    0=no restart 2=restart with 2 vectors
   NREBOOT  =      0    no. of reboots
   NMIN     =      0    reboot dimension
   EREF     =   0.00    reference energy to select bands
   IMIX   =      4    mixing-type and parameters
     AMIX     =   0.40;   BMIX     =  1.00
     AMIX_MAG =   1.60;   BMIX_MAG =  1.00
     AMIN     =   0.10
     WC   =   100.;   INIMIX=   1;  MIXPRE=   1;  MAXMIX= -45

 Intra band minimization:
   WEIMIN = 0.0000     energy-eigenvalue tresh-hold
   EBREAK =  0.42E-08  absolut break condition
   DEPER  =   0.30     relativ break condition  

   TIME   =   0.40     timestep for ELM

  volume/ion in A,a.u.               =       8.26        55.77
  Fermi-wavevector in a.u.,A,eV,Ry     =   1.365903  2.581182 25.384257  1.865690
  Thomas-Fermi vector in A             =   2.492090
 
 Write flags
   LWAVE        =      T    write WAVECAR
   LDOWNSAMPLE  =      F    k-point downsampling of WAVECAR
   LCHARG       =      T    write CHGCAR
   LVTOT        =      F    write LOCPOT, total local potential
   LVHAR        =      F    write LOCPOT, Hartree potential only
   LELF         =      F    write electronic localiz. function (ELF)
   LORBIT       =      0    0 simple, 1 ext, 2 COOP (PROOUT), +10 PAW based schemes


 Dipole corrections
   LMONO  =      F    monopole corrections only (constant potential shift)
   LDIPOL =      F    correct potential (dipole corrections)
   IDIPOL =      0    1-x, 2-y, 3-z, 4-all directions 
   EPSILON=  1.0000000 bulk dielectric constant

 Exchange correlation treatment:
   GGA     =    --    GGA type
   LEXCH   =     8    internal setting for exchange type
   VOSKOWN=      0    Vosko Wilk Nusair interpolation
   LHFCALC =     F    Hartree Fock is set to
   LHFONE  =     F    Hartree Fock one center treatment
   AEXX    =    0.0000 exact exchange contribution

 Linear response parameters
   LEPSILON=     F    determine dielectric tensor
   LRPA    =     F    only Hartree local field effects (RPA)
   LNABLA  =     F    use nabla operator in PAW spheres
   LVEL    =     F    velocity operator in full k-point grid
   LINTERFAST=   F  fast interpolation
   KINTER  =     0    interpolate to denser k-point grid
   CSHIFT  =0.1000    complex shift for real part using Kramers Kronig
   OMEGAMAX=  -1.0    maximum frequency
   DEG_THRESHOLD= 0.2000000E-02 threshold for treating states as degnerate
   RTIME   =   -0.100 relaxation time in fs
  (WPLASMAI=    0.000 imaginary part of plasma frequency in eV, 0.658/RTIME)
   DFIELD  = 0.0000000 0.0000000 0.0000000 field for delta impulse in time
 
 Orbital magnetization related:
   ORBITALMAG=     F  switch on orbital magnetization
   LCHIMAG   =     F  perturbation theory with respect to B field
   DQ        =  0.001000  dq finite difference perturbation B field
   LLRAUG    =     F  two centre corrections for induced B field



--------------------------------------------------------------------------------------------------------


 Static calculation
 charge density and potential will be updated during run
 non-spin polarized calculation
 Variant of blocked Davidson
 Davidson routine will perform the subspace rotation
 perform sub-space diagonalisation
    after iterative eigenvector-optimisation
 modified Broyden-mixing scheme, WC =      100.0
 initial mixing is a Kerker type mixing with AMIX =  0.4000 and BMIX =      1.0000
 Hartree-type preconditioning will be used
 using additional bands           11
 real space projection scheme for non local part
 use partial core corrections
 calculate Harris-corrections to forces 
   (improved forces if not selfconsistent)
 use gradient corrections 
 use of overlap-Matrix (Vanderbilt PP)
 Methfessel and Paxton  Order N= 1 SIGMA  =   0.03


--------------------------------------------------------------------------------------------------------


  energy-cutoff  :      400.00
  volume of cell :      165.29
      direct lattice vectors                 reciprocal lattice vectors
     4.790529726  0.000000000  0.000000000     0.208745182  0.000000000  0.000000000
     0.000000000  4.926779738  0.000000000     0.000000000  0.202972338  0.000000000
     0.000000000  0.000000000  7.003090219     0.000000000  0.000000000  0.142794105

  length of vectors
     4.790529726  4.926779738  7.003090219     0.208745182  0.202972338  0.142794105


 
 k-points in units of 2pi/SCALE and weight: k-points                                
   0.02609315  0.02537154  0.01784926       0.125
   0.07827944  0.02537154  0.01784926       0.125
   0.02609315  0.07611463  0.01784926       0.125
   0.07827944  0.07611463  0.01784926       0.125
   0.02609315  0.02537154  0.05354779       0.125
   0.07827944  0.02537154  0.05354779       0.125
   0.02609315  0.07611463  0.05354779       0.125
   0.07827944  0.07611463  0.05354779       0.125
 
 k-points in reciprocal lattice and weights: k-points                                
   0.12500000  0.12500000  0.12500000       0.125
   0.37500000  0.12500000  0.12500000       0.125
   0.12500000  0.37500000  0.12500000       0.125
   0.37500000  0.37500000  0.12500000       0.125
   0.12500000  0.12500000  0.37500000       0.125
   0.37500000  0.12500000  0.37500000       0.125
   0.12500000  0.37500000  0.37500000       0.125
   0.37500000  0.37500000  0.37500000       0.125
 
 position of ions in fractional coordinates (direct lattice) 
   0.25230024  0.03139637  0.38998858
   0.25230024  0.46860363  0.61001142
   0.24769976  0.53139637  0.11001141
   0.24769976  0.96860363  0.88998858
   0.74769973  0.96860363  0.61001142
   0.74769973  0.53139637  0.38998858
   0.75230027  0.46860363  0.88998858
   0.75230027  0.03139637  0.11001141
   0.10707275  0.10238975  0.65414766
   0.10707275  0.39761024  0.34585234
   0.39292724  0.60238973  0.84585234
   0.39292724  0.89761027  0.15414764
   0.89292727  0.89761027  0.34585234
   0.89292727  0.60238973  0.65414766
   0.60707273  0.39761024  0.15414764
   0.60707273  0.10238975  0.84585234
   0.05018837  0.25000000  0.00000000
   0.44981163  0.75000000  0.50000000
   0.94981160  0.75000000  0.00000000
   0.55018840  0.25000000  0.50000000
 
 position of ions in cartesian coordinates  (Angst):
   1.20865178  0.15468298  2.73112519
   1.20865178  2.30870688  4.27196503
   1.18661309  2.61807286  0.77041982
   1.18661309  4.77209675  6.23267030
   3.58187781  4.77209675  4.27196503
   3.58187781  2.61807286  2.73112519
   3.60391678  2.30870688  6.23267030
   3.60391678  0.15468298  0.77041982
   0.51293521  0.50445175  4.58105506
   0.51293521  1.95893808  2.42203516
   1.88232962  2.96784151  5.92358027
   1.88232962  4.42232810  1.07950984
   4.27759462  4.42232810  2.42203516
   4.27759462  2.96784151  4.58105506
   2.90819997  1.95893808  1.07950984
   2.90819997  0.50445175  5.92358027
   0.24042887  1.23169493  0.00000000
   2.15483601  3.69508480  3.50154511
   4.55010073  3.69508480  0.00000000
   2.63569386  1.23169493  3.50154511
 


--------------------------------------------------------------------------------------------------------


 k-point   1 :   0.1250 0.1250 0.1250  plane waves:    2993
 k-point   2 :   0.3750 0.1250 0.1250  plane waves:    2997
 k-point   3 :   0.1250 0.3750 0.1250  plane waves:    3015
 k-point   4 :   0.3750 0.3750 0.1250  plane waves:    3020
 k-point   5 :   0.1250 0.1250 0.3750  plane waves:    2998
 k-point   6 :   0.3750 0.1250 0.3750  plane waves:    3000
 k-point   7 :   0.1250 0.3750 0.3750  plane waves:    2996
 k-point   8 :   0.3750 0.3750 0.3750  plane waves:    3009

 maximum and minimum number of plane-waves per node :      3020     2993

 maximum number of plane-waves:      3020
 maximum index in each direction: 
   IXMAX=    7   IYMAX=    7   IZMAX=   11
   IXMIN=   -8   IYMIN=   -8   IZMIN=  -11


 serial   3D FFT for wavefunctions
 parallel 3D FFT for charge:
    minimum data exchange during FFTs selected (reduces bandwidth)


 total amount of memory used by VASP MPI-rank0    72340. kBytes
=======================================================================

   base      :      30000. kBytes
   nonlr-proj:       2148. kBytes
   fftplans  :       5804. kBytes
   grid      :      10312. kBytes
   one-center:         61. kBytes
   wavefun   :      24015. kBytes
 
     INWAV:  cpu time    0.0001: real time    0.0003
 Broyden mixing: mesh for mixing (old mesh)
   NGX = 15   NGY = 17   NGZ = 23
  (NGX  = 48   NGY  = 48   NGZ  = 72)
  gives a total of   5865 points

 initial charge density was supplied:
 charge density of overlapping atoms calculated
 number of electron      96.0000000 magnetization 
 keeping initial charge density in first step


--------------------------------------------------------------------------------------------------------


 Maximum index for non-local projection operator         1353
 Maximum index for augmentation-charges         4749 (set IRDMAX)


--------------------------------------------------------------------------------------------------------


 First call to EWALD:  gamma=   0.323
 Maximum number of real-space cells 3x 3x 2
 Maximum number of reciprocal cells 2x 3x 3

    FEWALD:  cpu time    0.0035: real time    0.0035


--------------------------------------- Iteration      1(   1)  ---------------------------------------


    POTLOK:  cpu time    0.0864: real time    0.1782
    SETDIJ:  cpu time    0.0243: real time    0.0243
     EDDAV:  cpu time    2.0365: real time    2.0368
       DOS:  cpu time    0.0012: real time    0.0012
    --------------------------------------------
      LOOP:  cpu time    2.1484: real time    2.2405

 eigenvalue-minimisations  :   944
 total energy-change (2. order) : 0.4381792E+03  (-0.4431713E+04)
 number of electron      96.0000000 magnetization 
 augmentation part       96.0000000 magnetization 

 Free energy of the ion-electron system (eV)
  ---------------------------------------------------
  alpha Z        PSCENC =       156.21032721
  Ewald energy   TEWEN  =     -4885.27185594
  -Hartree energ DENC   =     -1226.16307908
  -exchange      EXHF   =         0.00000000
  -V(xc)+E(xc)   XCENC  =       133.93936623
  PAW double counting   =      4688.19497969    -4454.14273673
  entropy T*S    EENTRO =         0.00018843
  eigenvalues    EBANDS =       409.94843578
  atomic energy  EATOM  =      5615.46358700
  Solvation  Ediel_sol  =         0.00000000
  ---------------------------------------------------
  free energy    TOTEN  =       438.17921260 eV

  energy without entropy =      438.17902417  energy(sigma->0) =      438.17914979


--------------------------------------------------------------------------------------------------------




--------------------------------------- Iteration      1(   2)  ---------------------------------------


     EDDAV:  cpu time    2.3502: real time    2.3508
       DOS:  cpu time    0.0013: real time    0.0013
    --------------------------------------------
      LOOP:  cpu time    2.3515: real time    2.3521

 eigenvalue-minimisations  :  1144
 total energy-change (2. order) :-0.5754829E+03  (-0.5602593E+03)
 number of electron      96.0000000 magnetization 
 augmentation part       96.0000000 magnetization 

 Free energy of the ion-electron system (eV)
  ---------------------------------------------------
  alpha Z        PSCENC =       156.21032721
  Ewald energy   TEWEN  =     -4885.27185594
  -Hartree energ DENC   =     -1226.16307908
  -exchange      EXHF   =         0.00000000
  -V(xc)+E(xc)   XCENC  =       133.93936623
  PAW double counting   =      4688.19497969    -4454.14273673
  entropy T*S    EENTRO =         0.00039143
  eigenvalues    EBANDS =      -165.53462917
  atomic energy  EATOM  =      5615.46358700
  Solvation  Ediel_sol  =         0.00000000
  ---------------------------------------------------
  free energy    TOTEN  =      -137.30364936 eV

  energy without entropy =     -137.30404078  energy(sigma->0) =     -137.30377983


--------------------------------------------------------------------------------------------------------




--------------------------------------- Iteration      1(   3)  ---------------------------------------


     EDDAV:  cpu time    2.3067: real time    2.3073
       DOS:  cpu time    0.0012: real time    0.0012
    --------------------------------------------
      LOOP:  cpu time    2.3079: real time    2.3085

 eigenvalue-minimisations  :  1112
 total energy-change (2. order) :-0.2639847E+02  (-0.2629696E+02)
 number of electron      96.0000000 magnetization 
 augmentation part       96.0000000 magnetization 

 Free energy of the ion-electron system (eV)
  ---------------------------------------------------
  alpha Z        PSCENC =       156.21032721
  Ewald energy   TEWEN  =     -4885.27185594
  -Hartree energ DENC   =     -1226.16307908
  -exchange      EXHF   =         0.00000000
  -V(xc)+E(xc)   XCENC  =       133.93936623
  PAW double counting   =      4688.19497969    -4454.14273673
  entropy T*S    EENTRO =         0.00024867
  eigenvalues    EBANDS =      -191.93295708
  atomic energy  EATOM  =      5615.46358700
  Solvation  Ediel_sol  =         0.00000000
  ---------------------------------------------------
  free energy    TOTEN  =      -163.70212003 eV

  energy without entropy =     -163.70236870  energy(sigma->0) =     -163.70220292


--------------------------------------------------------------------------------------------------------




--------------------------------------- Iteration      1(   4)  ---------------------------------------


     EDDAV:  cpu time    2.2931: real time    2.2936
       DOS:  cpu time    0.0012: real time    0.0012
    --------------------------------------------
      LOOP:  cpu time    2.2943: real time    2.2949

 eigenvalue-minimisations  :  1112
 total energy-change (2. order) :-0.2590288E+00  (-0.2582790E+00)
 number of electron      96.0000000 magnetization 
 augmentation part       96.0000000 magnetization 

 Free energy of the ion-electron system (eV)
  ---------------------------------------------------
  alpha Z        PSCENC =       156.21032721
  Ewald energy   TEWEN  =     -4885.27185594
  -Hartree energ DENC   =     -1226.16307908
  -exchange      EXHF   =         0.00000000
  -V(xc)+E(xc)   XCENC  =       133.93936623
  PAW double counting   =      4688.19497969    -4454.14273673
  entropy T*S    EENTRO =         0.00024248
  eigenvalues    EBANDS =      -192.19197973
  atomic energy  EATOM  =      5615.46358700
  Solvation  Ediel_sol  =         0.00000000
  ---------------------------------------------------
  free energy    TOTEN  =      -163.96114886 eV

  energy without entropy =     -163.96139134  energy(sigma->0) =     -163.96122969


--------------------------------------------------------------------------------------------------------




--------------------------------------- Iteration      1(   5)  ---------------------------------------


     EDDAV:  cpu time    2.2491: real time    2.2496
       DOS:  cpu time    0.0012: real time    0.0012
    CHARGE:  cpu time    0.1423: real time    0.1423
    MIXING:  cpu time    0.0040: real time    0.0040
    --------------------------------------------
      LOOP:  cpu time    2.3965: real time    2.3971

 eigenvalue-minimisations  :  1104
 total energy-change (2. order) :-0.4184924E-02  (-0.4181170E-02)
 number of electron      96.0000405 magnetization 
 augmentation part        9.3394385 magnetization 

 Broyden mixing:
  rms(total) = 0.24530E+01    rms(broyden)= 0.24521E+01
  rms(prec ) = 0.38414E+01
  weight for this iteration     100.00

 Free energy of the ion-electron system (eV)
  ---------------------------------------------------
  alpha Z        PSCENC =       156.21032721
  Ewald energy   TEWEN  =     -4885.27185594
  -Hartree energ DENC   =     -1226.16307908
  -exchange      EXHF   =         0.00000000
  -V(xc)+E(xc)   XCENC  =       133.93936623
  PAW double counting   =      4688.19497969    -4454.14273673
  entropy T*S    EENTRO =         0.00024258
  eigenvalues    EBANDS =      -192.19616475
  atomic energy  EATOM  =      5615.46358700
  Solvation  Ediel_sol  =         0.00000000
  ---------------------------------------------------
  free energy    TOTEN  =      -163.96533378 eV

  energy without entropy =     -163.96557636  energy(sigma->0) =     -163.96541464


--------------------------------------------------------------------------------------------------------




--------------------------------------- Iteration      1(   6)  ---------------------------------------


    POTLOK:  cpu time    0.0819: real time    0.0823
    SETDIJ:  cpu time    0.0245: real time    0.0245
     EDDAV:  cpu time    2.1890: real time    2.1893
       DOS:  cpu time    0.0013: real time    0.0013
    CHARGE:  cpu time    0.1363: real time    0.1364
    MIXING:  cpu time    0.0033: real time    0.0033
    --------------------------------------------
      LOOP:  cpu time    2.4364: real time    2.4370

 eigenvalue-minimisations  :  1053
 total energy-change (2. order) : 0.1609820E+02  (-0.6768904E+01)
 number of electron      96.0000348 magnetization 
 augmentation part        7.9217323 magnetization 

 Broyden mixing:
  rms(total) = 0.85452E+00    rms(broyden)= 0.85330E+00
  rms(prec ) = 0.10395E+01
  weight for this iteration     100.00

 eigenvalues of (default mixing * dielectric matrix)
  average eigenvalue GAMMA=   0.9685
  0.9685

 Free energy of the ion-electron system (eV)
  ---------------------------------------------------
  alpha Z        PSCENC =       156.21032721
  Ewald energy   TEWEN  =     -4885.27185594
  -Hartree energ DENC   =     -1411.65161154
  -exchange      EXHF   =         0.00000000
  -V(xc)+E(xc)   XCENC  =       147.06107035
  PAW double counting   =      6068.40270113    -5837.95274145
  entropy T*S    EENTRO =         0.00018847
  eigenvalues    EBANDS =        -0.12880077
  atomic energy  EATOM  =      5615.46358700
  Solvation  Ediel_sol  =         0.00000000
  ---------------------------------------------------
  free energy    TOTEN  =      -147.86713553 eV

  energy without entropy =     -147.86732400  energy(sigma->0) =     -147.86719835


--------------------------------------------------------------------------------------------------------




--------------------------------------- Iteration      1(   7)  ---------------------------------------


    POTLOK:  cpu time    0.0765: real time    0.0769
    SETDIJ:  cpu time    0.0242: real time    0.0242
     EDDAV:  cpu time    2.3108: real time    2.3115
       DOS:  cpu time    0.0012: real time    0.0012
    CHARGE:  cpu time    0.1363: real time    0.1363
    MIXING:  cpu time    0.0034: real time    0.0034
    --------------------------------------------
      LOOP:  cpu time    2.5524: real time    2.5535

 eigenvalue-minimisations  :  1168
 total energy-change (2. order) : 0.1610435E-01  (-0.1488374E+00)
 number of electron      96.0000346 magnetization 
 augmentation part        7.8210159 magnetization 

 Broyden mixing:
  rms(total) = 0.46622E+00    rms(broyden)= 0.46612E+00
  rms(prec ) = 0.57737E+00
  weight for this iteration     100.00

 eigenvalues of (default mixing * dielectric matrix)
  average eigenvalue GAMMA=   1.3217
  1.1968  1.4465

 Free energy of the ion-electron system (eV)
  ---------------------------------------------------
  alpha Z        PSCENC =       156.21032721
  Ewald energy   TEWEN  =     -4885.27185594
  -Hartree energ DENC   =     -1429.19820183
  -exchange      EXHF   =         0.00000000
  -V(xc)+E(xc)   XCENC  =       148.55642019
  PAW double counting   =      7142.38419610    -6911.82387125
  entropy T*S    EENTRO =         0.00018849
  eigenvalues    EBANDS =        15.82817886
  atomic energy  EATOM  =      5615.46358700
  Solvation  Ediel_sol  =         0.00000000
  ---------------------------------------------------
  free energy    TOTEN  =      -147.85103118 eV

  energy without entropy =     -147.85121967  energy(sigma->0) =     -147.85109401


--------------------------------------------------------------------------------------------------------




--------------------------------------- Iteration      1(   8)  ---------------------------------------


    POTLOK:  cpu time    0.0761: real time    0.0765
    SETDIJ:  cpu time    0.0242: real time    0.0242
     EDDAV:  cpu time    2.3013: real time    2.3016
       DOS:  cpu time    0.0013: real time    0.0013
    CHARGE:  cpu time    0.1361: real time    0.1361
    MIXING:  cpu time    0.0035: real time    0.0035
    --------------------------------------------
      LOOP:  cpu time    2.5426: real time    2.5433

 eigenvalue-minimisations  :  1112
 total energy-change (2. order) :-0.3261562E-02  (-0.1236612E-01)
 number of electron      96.0000347 magnetization 
 augmentation part        7.8465406 magnetization 

 Broyden mixing:
  rms(total) = 0.12952E+00    rms(broyden)= 0.12952E+00
  rms(prec ) = 0.17365E+00
  weight for this iteration     100.00

 eigenvalues of (default mixing * dielectric matrix)
  average eigenvalue GAMMA=   1.5679
  2.5356  1.0841  1.0841

 Free energy of the ion-electron system (eV)
  ---------------------------------------------------
  alpha Z        PSCENC =       156.21032721
  Ewald energy   TEWEN  =     -4885.27185594
  -Hartree energ DENC   =     -1434.41950605
  -exchange      EXHF   =         0.00000000
  -V(xc)+E(xc)   XCENC  =       149.28463527
  PAW double counting   =      7999.07564674    -7768.32952677
  entropy T*S    EENTRO =         0.00018853
  eigenvalues    EBANDS =        20.13221126
  atomic energy  EATOM  =      5615.46358700
  Solvation  Ediel_sol  =         0.00000000
  ---------------------------------------------------
  free energy    TOTEN  =      -147.85429274 eV

  energy without entropy =     -147.85448127  energy(sigma->0) =     -147.85435559


--------------------------------------------------------------------------------------------------------




--------------------------------------- Iteration      1(   9)  ---------------------------------------


    POTLOK:  cpu time    0.0765: real time    0.0768
    SETDIJ:  cpu time    0.0242: real time    0.0242
     EDDAV:  cpu time    2.2852: real time    2.2855
       DOS:  cpu time    0.0012: real time    0.0012
    CHARGE:  cpu time    0.1385: real time    0.1385
    MIXING:  cpu time    0.0040: real time    0.0040
    --------------------------------------------
      LOOP:  cpu time    2.5297: real time    2.5304

 eigenvalue-minimisations  :  1120
 total energy-change (2. order) :-0.1056452E-01  (-0.3379271E-02)
 number of electron      96.0000347 magnetization 
 augmentation part        7.8289115 magnetization 

 Broyden mixing:
  rms(total) = 0.37764E-01    rms(broyden)= 0.37758E-01
  rms(prec ) = 0.39746E-01
  weight for this iteration     100.00

 eigenvalues of (default mixing * dielectric matrix)
  average eigenvalue GAMMA=   1.7871
  1.0301  1.0301  2.5442  2.5442

 Free energy of the ion-electron system (eV)
  ---------------------------------------------------
  alpha Z        PSCENC =       156.21032721
  Ewald energy   TEWEN  =     -4885.27185594
  -Hartree energ DENC   =     -1441.36541429
  -exchange      EXHF   =         0.00000000
  -V(xc)+E(xc)   XCENC  =       149.96700857
  PAW double counting   =      8315.77458553    -8085.04688892
  entropy T*S    EENTRO =         0.00018855
  eigenvalues    EBANDS =        26.40360503
  atomic energy  EATOM  =      5615.46358700
  Solvation  Ediel_sol  =         0.00000000
  ---------------------------------------------------
  free energy    TOTEN  =      -147.86485726 eV

  energy without entropy =     -147.86504581  energy(sigma->0) =     -147.86492011


--------------------------------------------------------------------------------------------------------




--------------------------------------- Iteration      1(  10)  ---------------------------------------


    POTLOK:  cpu time    0.0795: real time    0.0798
    SETDIJ:  cpu time    0.0244: real time    0.0244
     EDDAV:  cpu time    2.3035: real time    2.3039
       DOS:  cpu time    0.0012: real time    0.0012
    CHARGE:  cpu time    0.1363: real time    0.1363
    MIXING:  cpu time    0.0038: real time    0.0038
    --------------------------------------------
      LOOP:  cpu time    2.5487: real time    2.5496

 eigenvalue-minimisations  :  1120
 total energy-change (2. order) :-0.1484907E-02  (-0.5187018E-03)
 number of electron      96.0000347 magnetization 
 augmentation part        7.8241328 magnetization 

 Broyden mixing:
  rms(total) = 0.13602E-01    rms(broyden)= 0.13592E-01
  rms(prec ) = 0.19083E-01
  weight for this iteration     100.00

 eigenvalues of (default mixing * dielectric matrix)
  average eigenvalue GAMMA=   1.5383
  2.6450  2.3392  1.0124  1.0124  0.6824

 Free energy of the ion-electron system (eV)
  ---------------------------------------------------
  alpha Z        PSCENC =       156.21032721
  Ewald energy   TEWEN  =     -4885.27185594
  -Hartree energ DENC   =     -1441.94110124
  -exchange      EXHF   =         0.00000000
  -V(xc)+E(xc)   XCENC  =       150.02308321
  PAW double counting   =      8192.80260538    -7962.09547081
  entropy T*S    EENTRO =         0.00018856
  eigenvalues    EBANDS =        26.94229446
  atomic energy  EATOM  =      5615.46358700
  Solvation  Ediel_sol  =         0.00000000
  ---------------------------------------------------
  free energy    TOTEN  =      -147.86634217 eV

  energy without entropy =     -147.86653073  energy(sigma->0) =     -147.86640502


--------------------------------------------------------------------------------------------------------




--------------------------------------- Iteration      1(  11)  ---------------------------------------


    POTLOK:  cpu time    0.0777: real time    0.0780
    SETDIJ:  cpu time    0.0242: real time    0.0242
     EDDAV:  cpu time    2.3095: real time    2.3101
       DOS:  cpu time    0.0012: real time    0.0012
    CHARGE:  cpu time    0.1400: real time    0.1401
    MIXING:  cpu time    0.0040: real time    0.0041
    --------------------------------------------
      LOOP:  cpu time    2.5567: real time    2.5576

 eigenvalue-minimisations  :  1112
 total energy-change (2. order) : 0.2714523E-03  (-0.1014809E-03)
 number of electron      96.0000347 magnetization 
 augmentation part        7.8276073 magnetization 

 Broyden mixing:
  rms(total) = 0.92096E-02    rms(broyden)= 0.92086E-02
  rms(prec ) = 0.10858E-01
  weight for this iteration     100.00

 eigenvalues of (default mixing * dielectric matrix)
  average eigenvalue GAMMA=   1.5682
  2.8093  2.4761  1.0253  1.0253  1.0365  1.0365

 Free energy of the ion-electron system (eV)
  ---------------------------------------------------
  alpha Z        PSCENC =       156.21032721
  Ewald energy   TEWEN  =     -4885.27185594
  -Hartree energ DENC   =     -1441.65228044
  -exchange      EXHF   =         0.00000000
  -V(xc)+E(xc)   XCENC  =       150.00377055
  PAW double counting   =      8197.92468255    -7967.20925379
  entropy T*S    EENTRO =         0.00018856
  eigenvalues    EBANDS =        26.66476359
  atomic energy  EATOM  =      5615.46358700
  Solvation  Ediel_sol  =         0.00000000
  ---------------------------------------------------
  free energy    TOTEN  =      -147.86607072 eV

  energy without entropy =     -147.86625927  energy(sigma->0) =     -147.86613357


--------------------------------------------------------------------------------------------------------




--------------------------------------- Iteration      1(  12)  ---------------------------------------


    POTLOK:  cpu time    0.0769: real time    0.0772
    SETDIJ:  cpu time    0.0242: real time    0.0242
     EDDAV:  cpu time    2.3171: real time    2.3174
       DOS:  cpu time    0.0012: real time    0.0012
    CHARGE:  cpu time    0.1403: real time    0.1403
    MIXING:  cpu time    0.0043: real time    0.0043
    --------------------------------------------
      LOOP:  cpu time    2.5639: real time    2.5646

 eigenvalue-minimisations  :  1120
 total energy-change (2. order) :-0.1491295E-04  (-0.5580910E-04)
 number of electron      96.0000347 magnetization 
 augmentation part        7.8280942 magnetization 

 Broyden mixing:
  rms(total) = 0.23309E-02    rms(broyden)= 0.23223E-02
  rms(prec ) = 0.32877E-02
  weight for this iteration     100.00

 eigenvalues of (default mixing * dielectric matrix)
  average eigenvalue GAMMA=   1.5297
  2.8403  2.4543  1.2779  1.0647  1.0647  1.0032  1.0032

 Free energy of the ion-electron system (eV)
  ---------------------------------------------------
  alpha Z        PSCENC =       156.21032721
  Ewald energy   TEWEN  =     -4885.27185594
  -Hartree energ DENC   =     -1441.63585978
  -exchange      EXHF   =         0.00000000
  -V(xc)+E(xc)   XCENC  =       150.00375155
  PAW double counting   =      8174.21127906    -7943.49841266
  entropy T*S    EENTRO =         0.00018855
  eigenvalues    EBANDS =        26.65090937
  atomic energy  EATOM  =      5615.46358700
  Solvation  Ediel_sol  =         0.00000000
  ---------------------------------------------------
  free energy    TOTEN  =      -147.86608563 eV

  energy without entropy =     -147.86627418  energy(sigma->0) =     -147.86614848


--------------------------------------------------------------------------------------------------------




--------------------------------------- Iteration      1(  13)  ---------------------------------------


    POTLOK:  cpu time    0.0770: real time    0.0774
    SETDIJ:  cpu time    0.0243: real time    0.0243
     EDDAV:  cpu time    2.3111: real time    2.3114
       DOS:  cpu time    0.0012: real time    0.0012
    CHARGE:  cpu time    0.1401: real time    0.1401
    MIXING:  cpu time    0.0045: real time    0.0045
    --------------------------------------------
      LOOP:  cpu time    2.5582: real time    2.5588

 eigenvalue-minimisations  :  1112
 total energy-change (2. order) : 0.6628964E-05  (-0.9198201E-05)
 number of electron      96.0000347 magnetization 
 augmentation part        7.8293574 magnetization 

 Broyden mixing:
  rms(total) = 0.10455E-02    rms(broyden)= 0.10440E-02
  rms(prec ) = 0.13702E-02
  weight for this iteration     100.00

 eigenvalues of (default mixing * dielectric matrix)
  average eigenvalue GAMMA=   1.5058
  2.8391  2.4362  1.8097  1.0117  1.0117  1.0408  1.0408  0.8564

 Free energy of the ion-electron system (eV)
  ---------------------------------------------------
  alpha Z        PSCENC =       156.21032721
  Ewald energy   TEWEN  =     -4885.27185594
  -Hartree energ DENC   =     -1441.48271664
  -exchange      EXHF   =         0.00000000
  -V(xc)+E(xc)   XCENC  =       149.99278384
  PAW double counting   =      8173.23218319    -7942.51494690
  entropy T*S    EENTRO =         0.00018855
  eigenvalues    EBANDS =        26.50437067
  atomic energy  EATOM  =      5615.46358700
  Solvation  Ediel_sol  =         0.00000000
  ---------------------------------------------------
  free energy    TOTEN  =      -147.86607900 eV

  energy without entropy =     -147.86626756  energy(sigma->0) =     -147.86614185


--------------------------------------------------------------------------------------------------------




--------------------------------------- Iteration      1(  14)  ---------------------------------------


    POTLOK:  cpu time    0.0770: real time    0.0774
    SETDIJ:  cpu time    0.0242: real time    0.0242
     EDDAV:  cpu time    2.3237: real time    2.3241
       DOS:  cpu time    0.0011: real time    0.0011
    CHARGE:  cpu time    0.1426: real time    0.1426
    MIXING:  cpu time    0.0054: real time    0.0054
    --------------------------------------------
      LOOP:  cpu time    2.5740: real time    2.5748

 eigenvalue-minimisations  :  1120
 total energy-change (2. order) : 0.1074626E-05  (-0.1142445E-05)
 number of electron      96.0000347 magnetization 
 augmentation part        7.8289990 magnetization 

 Broyden mixing:
  rms(total) = 0.34444E-03    rms(broyden)= 0.34393E-03
  rms(prec ) = 0.41999E-03
  weight for this iteration     100.00

 eigenvalues of (default mixing * dielectric matrix)
  average eigenvalue GAMMA=   1.5287
  2.9013  2.5303  2.2101  0.9921  0.9921  1.0423  0.9970  1.0466  1.0466

 Free energy of the ion-electron system (eV)
  ---------------------------------------------------
  alpha Z        PSCENC =       156.21032721
  Ewald energy   TEWEN  =     -4885.27185594
  -Hartree energ DENC   =     -1441.52545559
  -exchange      EXHF   =         0.00000000
  -V(xc)+E(xc)   XCENC  =       149.99523236
  PAW double counting   =      8172.36426821    -7941.64754842
  entropy T*S    EENTRO =         0.00018855
  eigenvalues    EBANDS =        26.54517870
  atomic energy  EATOM  =      5615.46358700
  Solvation  Ediel_sol  =         0.00000000
  ---------------------------------------------------
  free energy    TOTEN  =      -147.86607793 eV

  energy without entropy =     -147.86626648  energy(sigma->0) =     -147.86614078


--------------------------------------------------------------------------------------------------------




--------------------------------------- Iteration      1(  15)  ---------------------------------------


    POTLOK:  cpu time    0.0799: real time    0.0802
    SETDIJ:  cpu time    0.0243: real time    0.0243
     EDDAV:  cpu time    1.6382: real time    1.6384
       DOS:  cpu time    0.0012: real time    0.0012
    --------------------------------------------
      LOOP:  cpu time    1.7436: real time    1.7441

 eigenvalue-minimisations  :   688
 total energy-change (2. order) : 0.9703035E-07  (-0.3551164E-07)
 number of electron      96.0000347 magnetization 
 augmentation part        7.8289990 magnetization 

 Free energy of the ion-electron system (eV)
  ---------------------------------------------------
  alpha Z        PSCENC =       156.21032721
  Ewald energy   TEWEN  =     -4885.27185594
  -Hartree energ DENC   =     -1441.53433144
  -exchange      EXHF   =         0.00000000
  -V(xc)+E(xc)   XCENC  =       149.99557362
  PAW double counting   =      8171.59802683    -7940.88107497
  entropy T*S    EENTRO =         0.00018855
  eigenvalues    EBANDS =        26.55348131
  atomic energy  EATOM  =      5615.46358700
  Solvation  Ediel_sol  =         0.00000000
  ---------------------------------------------------
  free energy    TOTEN  =      -147.86607783 eV

  energy without entropy =     -147.86626638  energy(sigma->0) =     -147.86614068


--------------------------------------------------------------------------------------------------------




 average (electrostatic) potential at core
  the test charge radii are     1.0406  0.7215
  (the norm of the test charge is              1.0000)
       1 -71.0468       2 -71.0468       3 -71.0468       4 -71.0468       5 -71.0468
       6 -71.0468       7 -71.0468       8 -71.0468       9 -66.6471      10 -66.6470
      11 -66.6471      12 -66.6471      13 -66.6470      14 -66.6471      15 -66.6471
      16 -66.6471      17 -66.5108      18 -66.5107      19 -66.5108      20 -66.5108
 
 
 
 E-fermi :   6.7022     XC(G=0): -11.9000     alpha+bet :-17.3172


 k-point     1 :       0.1250    0.1250    0.1250
  band No.  band energies     occupation 
      1     -12.6038      2.00000
      2     -11.5840      2.00000
      3     -10.7179      2.00000
      4     -10.6702      2.00000
      5     -10.6079      2.00000
      6     -10.2448      2.00000
      7     -10.0660      2.00000
      8      -9.9007      2.00000
      9      -9.8566      2.00000
     10      -9.7946      2.00000
     11      -9.6698      2.00000
     12      -9.4500      2.00000
     13       0.2640      2.00000
     14       0.4491      2.00000
     15       0.5123      2.00000
     16       0.6634      2.00000
     17       1.1892      2.00000
     18       1.3047      2.00000
     19       1.3437      2.00000
     20       1.6443      2.00000
     21       1.8323      2.00000
     22       2.1972      2.00000
     23       2.2726      2.00000
     24       2.5116      2.00000
     25       2.5685      2.00000
     26       2.9802      2.00000
     27       3.5678      2.00000
     28       3.7769      2.00000
     29       3.9860      2.00000
     30       4.2970      2.00000
     31       4.3439      2.00000
     32       4.6277      2.00000
     33       4.6699      2.00000
     34       4.9901      2.00000
     35       5.1802      2.00000
     36       5.3591      2.00000
     37       5.4803      2.00000
     38       5.4841      2.00000
     39       5.6016      2.00000
     40       5.7717      2.00000
     41       5.8792      2.00000
     42       5.9485      2.00000
     43       6.0342      2.00000
     44       6.1899      2.00000
     45       6.2941      2.00000
     46       6.3681      2.00000
     47       6.5369      2.00000
     48       6.6804      1.99999
     49      13.0709      0.00000
     50      15.4175      0.00000
     51      15.5802      0.00000
     52      15.9259      0.00000
     53      16.1768      0.00000
     54      16.8709      0.00000
     55      17.0732      0.00000
     56      17.1539      0.00000
     57      17.4335      0.00000
     58      17.6293      0.00000
     59      17.9090      0.00000

 k-point     2 :       0.3750    0.1250    0.1250
  band No.  band energies     occupation 
      1     -12.1738      2.00000
      2     -11.4630      2.00000
      3     -11.1993      2.00000
      4     -10.7663      2.00000
      5     -10.4552      2.00000
      6     -10.3402      2.00000
      7     -10.1715      2.00000
      8     -10.0250      2.00000
      9      -9.9548      2.00000
     10      -9.7887      2.00000
     11      -9.5933      2.00000
     12      -9.4724      2.00000
     13       0.2151      2.00000
     14       0.4714      2.00000
     15       0.5933      2.00000
     16       0.8607      2.00000
     17       0.9620      2.00000
     18       1.2572      2.00000
     19       1.4106      2.00000
     20       1.4656      2.00000
     21       1.7956      2.00000
     22       2.3647      2.00000
     23       2.5523      2.00000
     24       2.8430      2.00000
     25       2.9331      2.00000
     26       3.4041      2.00000
     27       3.7793      2.00000
     28       3.9250      2.00000
     29       4.2029      2.00000
     30       4.2307      2.00000
     31       4.3344      2.00000
     32       4.4745      2.00000
     33       4.6518      2.00000
     34       4.8920      2.00000
     35       5.0026      2.00000
     36       5.1862      2.00000
     37       5.2791      2.00000
     38       5.4458      2.00000
     39       5.5318      2.00000
     40       5.6923      2.00000
     41       5.8626      2.00000
     42       5.9334      2.00000
     43       6.0165      2.00000
     44       6.0494      2.00000
     45       6.1984      2.00000
     46       6.2091      2.00000
     47       6.5754      2.00000
     48       6.5903      2.00000
     49      14.3804      0.00000
     50      15.2924      0.00000
     51      15.3877      0.00000
     52      15.7364      0.00000
     53      15.9359      0.00000
     54      16.3182      0.00000
     55      16.6826      0.00000
     56      17.1391      0.00000
     57      17.3391      0.00000
     58      17.4005      0.00000
     59      17.4956      0.00000

 k-point     3 :       0.1250    0.3750    0.1250
  band No.  band energies     occupation 
      1     -12.1921      2.00000
      2     -11.4742      2.00000
      3     -11.2336      2.00000
      4     -10.6742      2.00000
      5     -10.4517      2.00000
      6     -10.3815      2.00000
      7     -10.1745      2.00000
      8     -10.0912      2.00000
      9      -9.8445      2.00000
     10      -9.7035      2.00000
     11      -9.6675      2.00000
     12      -9.5662      2.00000
     13       0.3708      2.00000
     14       0.5531      2.00000
     15       0.6985      2.00000
     16       0.9797      2.00000
     17       1.1130      2.00000
     18       1.4493      2.00000
     19       1.6691      2.00000
     20       1.9552      2.00000
     21       2.1658      2.00000
     22       2.3614      2.00000
     23       2.4260      2.00000
     24       2.7777      2.00000
     25       2.9643      2.00000
     26       3.2321      2.00000
     27       3.4797      2.00000
     28       3.5541      2.00000
     29       3.9165      2.00000
     30       3.9672      2.00000
     31       4.0941      2.00000
     32       4.2257      2.00000
     33       4.6227      2.00000
     34       4.7889      2.00000
     35       4.9701      2.00000
     36       5.1173      2.00000
     37       5.1674      2.00000
     38       5.3447      2.00000
     39       5.4182      2.00000
     40       5.5463      2.00000
     41       5.6613      2.00000
     42       5.7286      2.00000
     43       5.9395      2.00000
     44       6.0850      2.00000
     45       6.3213      2.00000
     46       6.4213      2.00000
     47       6.5553      2.00000
     48       6.6130      2.00001
     49      14.3786      0.00000
     50      15.4868      0.00000
     51      15.8173      0.00000
     52      15.9369      0.00000
     53      15.9787      0.00000
     54      16.1638      0.00000
     55      16.7446      0.00000
     56      17.1386      0.00000
     57      17.5880      0.00000
     58      17.7569      0.00000
     59      17.8798      0.00000

 k-point     4 :       0.3750    0.3750    0.1250
  band No.  band energies     occupation 
      1     -11.7957      2.00000
      2     -11.1614      2.00000
      3     -11.1526      2.00000
      4     -10.9525      2.00000
      5     -10.5296      2.00000
      6     -10.4341      2.00000
      7     -10.3833      2.00000
      8     -10.3185      2.00000
      9      -9.8483      2.00000
     10      -9.7998      2.00000
     11      -9.7607      2.00000
     12      -9.6220      2.00000
     13       0.6041      2.00000
     14       0.6737      2.00000
     15       0.7703      2.00000
     16       0.9861      2.00000
     17       1.2869      2.00000
     18       1.5318      2.00000
     19       1.7962      2.00000
     20       1.9641      2.00000
     21       2.1828      2.00000
     22       2.3896      2.00000
     23       2.5069      2.00000
     24       2.9613      2.00000
     25       3.1515      2.00000
     26       3.2468      2.00000
     27       3.4461      2.00000
     28       3.6524      2.00000
     29       3.7595      2.00000
     30       3.9634      2.00000
     31       4.1506      2.00000
     32       4.3612      2.00000
     33       4.5898      2.00000
     34       4.7014      2.00000
     35       5.0293      2.00000
     36       5.0503      2.00000
     37       5.1390      2.00000
     38       5.2728      2.00000
     39       5.4048      2.00000
     40       5.5378      2.00000
     41       5.5615      2.00000
     42       5.7618      2.00000
     43       5.8394      2.00000
     44       5.9320      2.00000
     45       6.1535      2.00000
     46       6.3530      2.00000
     47       6.4873      2.00000
     48       6.5537      2.00000
     49      15.2186      0.00000
     50      15.5350      0.00000
     51      15.6629      0.00000
     52      15.8532      0.00000
     53      16.2272      0.00000
     54      16.3753      0.00000
     55      16.5827      0.00000
     56      16.7553      0.00000
     57      17.1060      0.00000
     58      17.2865      0.00000
     59      17.4404      0.00000

 k-point     5 :       0.1250    0.1250    0.3750
  band No.  band energies     occupation 
      1     -12.4005      2.00000
      2     -12.0251      2.00000
      3     -10.6297      2.00000
      4     -10.5452      2.00000
      5     -10.3900      2.00000
      6     -10.2704      2.00000
      7     -10.2266      2.00000
      8      -9.9194      2.00000
      9      -9.7991      2.00000
     10      -9.7235      2.00000
     11      -9.6851      2.00000
     12      -9.5350      2.00000
     13       0.2299      2.00000
     14       0.3603      2.00000
     15       0.5932      2.00000
     16       0.7212      2.00000
     17       0.8905      2.00000
     18       0.9669      2.00000
     19       1.4653      2.00000
     20       1.5549      2.00000
     21       1.9568      2.00000
     22       2.0572      2.00000
     23       2.3763      2.00000
     24       2.7052      2.00000
     25       2.9934      2.00000
     26       3.3676      2.00000
     27       3.6731      2.00000
     28       3.7582      2.00000
     29       3.9832      2.00000
     30       4.2548      2.00000
     31       4.2769      2.00000
     32       4.4639      2.00000
     33       4.7027      2.00000
     34       5.0404      2.00000
     35       5.1770      2.00000
     36       5.3178      2.00000
     37       5.3566      2.00000
     38       5.4328      2.00000
     39       5.4780      2.00000
     40       5.6338      2.00000
     41       5.7674      2.00000
     42       5.8538      2.00000
     43       6.0208      2.00000
     44       6.2188      2.00000
     45       6.3724      2.00000
     46       6.4584      2.00000
     47       6.5753      2.00000
     48       6.5891      2.00000
     49      13.7631      0.00000
     50      14.7171      0.00000
     51      15.9827      0.00000
     52      16.4184      0.00000
     53      16.4714      0.00000
     54      16.6874      0.00000
     55      16.9130      0.00000
     56      17.0617      0.00000
     57      17.2187      0.00000
     58      17.3650      0.00000
     59      17.7483      0.00000

 k-point     6 :       0.3750    0.1250    0.3750
  band No.  band energies     occupation 
      1     -11.9888      2.00000
      2     -11.6605      2.00000
      3     -11.2384      2.00000
      4     -10.9933      2.00000
      5     -10.3533      2.00000
      6     -10.2631      2.00000
      7     -10.1677      2.00000
      8     -10.0336      2.00000
      9      -9.8379      2.00000
     10      -9.6987      2.00000
     11      -9.6296      2.00000
     12      -9.5090      2.00000
     13       0.1315      2.00000
     14       0.2830      2.00000
     15       0.3750      2.00000
     16       0.4200      2.00000
     17       1.1704      2.00000
     18       1.4455      2.00000
     19       1.5616      2.00000
     20       1.6489      2.00000
     21       2.1057      2.00000
     22       2.4351      2.00000
     23       2.7054      2.00000
     24       2.9820      2.00000
     25       3.1378      2.00000
     26       3.2885      2.00000
     27       3.4614      2.00000
     28       3.8937      2.00000
     29       4.1225      2.00000
     30       4.1338      2.00000
     31       4.3143      2.00000
     32       4.5623      2.00000
     33       4.6770      2.00000
     34       4.8868      2.00000
     35       4.9650      2.00000
     36       5.1274      2.00000
     37       5.2258      2.00000
     38       5.4134      2.00000
     39       5.4622      2.00000
     40       5.5781      2.00000
     41       5.7436      2.00000
     42       5.8989      2.00000
     43       6.1029      2.00000
     44       6.1627      2.00000
     45       6.3119      2.00000
     46       6.3736      2.00000
     47       6.4727      2.00000
     48       6.5029      2.00000
     49      14.7985      0.00000
     50      15.2141      0.00000
     51      15.7373      0.00000
     52      15.8586      0.00000
     53      15.9783      0.00000
     54      16.4037      0.00000
     55      16.7053      0.00000
     56      16.8988      0.00000
     57      17.1204      0.00000
     58      17.2867      0.00000
     59      17.5325      0.00000

 k-point     7 :       0.1250    0.3750    0.3750
  band No.  band energies     occupation 
      1     -12.0008      2.00000
      2     -11.6491      2.00000
      3     -11.3130      2.00000
      4     -11.0194      2.00000
      5     -10.2943      2.00000
      6     -10.1361      2.00000
      7     -10.0934      2.00000
      8     -10.0137      2.00000
      9      -9.8077      2.00000
     10      -9.7696      2.00000
     11      -9.7336      2.00000
     12      -9.5951      2.00000
     13       0.4019      2.00000
     14       0.4835      2.00000
     15       0.7021      2.00000
     16       0.7272      2.00000
     17       1.2223      2.00000
     18       1.4971      2.00000
     19       1.5405      2.00000
     20       1.8677      2.00000
     21       2.0578      2.00000
     22       2.1949      2.00000
     23       2.6141      2.00000
     24       2.8151      2.00000
     25       2.9459      2.00000
     26       3.3788      2.00000
     27       3.6452      2.00000
     28       3.7236      2.00000
     29       3.9265      2.00000
     30       4.0311      2.00000
     31       4.3551      2.00000
     32       4.5219      2.00000
     33       4.6181      2.00000
     34       4.6762      2.00000
     35       4.8078      2.00000
     36       5.0372      2.00000
     37       5.1734      2.00000
     38       5.3365      2.00000
     39       5.3877      2.00000
     40       5.4638      2.00000
     41       5.7065      2.00000
     42       5.7735      2.00000
     43       5.9099      2.00000
     44       5.9791      2.00000
     45       6.3019      2.00000
     46       6.3647      2.00000
     47       6.4794      2.00000
     48       6.5363      2.00000
     49      14.7473      0.00000
     50      15.3287      0.00000
     51      15.8062      0.00000
     52      15.8979      0.00000
     53      16.1751      0.00000
     54      16.4913      0.00000
     55      16.7177      0.00000
     56      17.0976      0.00000
     57      17.2237      0.00000
     58      17.3070      0.00000
     59      17.5995      0.00000

 k-point     8 :       0.3750    0.3750    0.3750
  band No.  band energies     occupation 
      1     -11.6247      2.00000
      2     -11.3263      2.00000
      3     -11.0491      2.00000
      4     -11.0056      2.00000
      5     -10.6641      2.00000
      6     -10.6241      2.00000
      7     -10.4325      2.00000
      8     -10.2889      2.00000
      9      -9.7904      2.00000
     10      -9.7281      2.00000
     11      -9.6346      2.00000
     12      -9.5546      2.00000
     13       0.5213      2.00000
     14       0.5553      2.00000
     15       0.7618      2.00000
     16       0.8160      2.00000
     17       1.4246      2.00000
     18       1.6214      2.00000
     19       1.6313      2.00000
     20       1.9647      2.00000
     21       2.3146      2.00000
     22       2.4078      2.00000
     23       2.7264      2.00000
     24       2.7707      2.00000
     25       2.9483      2.00000
     26       3.1753      2.00000
     27       3.4699      2.00000
     28       3.5240      2.00000
     29       4.1006      2.00000
     30       4.1439      2.00000
     31       4.2690      2.00000
     32       4.4573      2.00000
     33       4.7367      2.00000
     34       4.7763      2.00000
     35       4.9948      2.00000
     36       5.0144      2.00000
     37       5.0664      2.00000
     38       5.2638      2.00000
     39       5.3011      2.00000
     40       5.4933      2.00000
     41       5.6555      2.00000
     42       5.7432      2.00000
     43       5.9502      2.00000
     44       6.0109      2.00000
     45       6.0916      2.00000
     46       6.2750      2.00000
     47       6.3428      2.00000
     48       6.4178      2.00000
     49      15.4085      0.00000
     50      15.5829      0.00000
     51      15.7010      0.00000
     52      15.7953      0.00000
     53      16.0937      0.00000
     54      16.1813      0.00000
     55      16.7243      0.00000
     56      16.8706      0.00000
     57      17.0677      0.00000
     58      17.1211      0.00000
     59      17.3157      0.00000


--------------------------------------------------------------------------------------------------------


 soft charge-density along one line, spin component           1
         0         1         2         3         4         5         6         7         8         9
 total charge-density along one line
 
 pseudopotential strength for first ion, spin component:           1
  8.375  14.272   0.002  -0.001  -0.000   0.008  -0.003  -0.000
 14.272  24.320   0.004  -0.002  -0.000   0.013  -0.005  -0.000
  0.002   0.004   1.983  -0.000   0.000   5.708  -0.000   0.001
 -0.001  -0.002  -0.000   1.983  -0.000  -0.000   5.708  -0.001
 -0.000  -0.000   0.000  -0.000   1.983   0.001  -0.001   5.707
  0.008   0.013   5.708  -0.000   0.001  16.348  -0.001   0.002
 -0.003  -0.005  -0.000   5.708  -0.001  -0.001  16.348  -0.002
 -0.000  -0.000   0.001  -0.001   5.707   0.002  -0.002  16.347
 total augmentation occupancy for first ion, spin component:           1
  5.371  -1.951  -0.195   0.114   0.012   0.028  -0.020  -0.002
 -1.951   0.744   0.065  -0.059  -0.005  -0.010   0.009   0.001
 -0.195   0.065   1.576   0.054  -0.077  -0.153  -0.007   0.010
  0.114  -0.059   0.054   1.468   0.097  -0.008  -0.142  -0.011
  0.012  -0.005  -0.077   0.097   1.629   0.010  -0.011  -0.160
  0.028  -0.010  -0.153  -0.008   0.010   0.016   0.001  -0.001
 -0.020   0.009  -0.007  -0.142  -0.011   0.001   0.015   0.001
 -0.002   0.001   0.010  -0.011  -0.160  -0.001   0.001   0.017


------------------------ aborting loop because EDIFF is reached ----------------------------------------


    CHARGE:  cpu time    0.1401: real time    0.1401
    FORLOC:  cpu time    0.0241: real time    0.0241
    FORNL :  cpu time    0.6628: real time    0.6629
    STRESS:  cpu time    2.0169: real time    2.0171
    FORCOR:  cpu time    0.1031: real time    0.1031
    FORHAR:  cpu time    0.0371: real time    0.0371
    MIXING:  cpu time    0.0050: real time    0.0050
    OFIELD:  cpu time    0.0000: real time    0.0000

  FORCE on cell =-STRESS in cart. coord.  units (eV):
  Direction    XX          YY          ZZ          XY          YZ          ZX
  --------------------------------------------------------------------------------------
  Alpha Z   156.21033   156.21033   156.21033
  Ewald   -1584.97340 -1632.60958 -1667.70140    -0.00000     0.00000    -0.00000
  Hartree   484.00620   473.38380   484.15522     0.00000     0.00000    -0.00000
  E(xc)    -444.73444  -444.62570  -444.15262     0.00000    -0.00000    -0.00000
  Local    -264.63328  -208.56962  -190.34053    -0.00000    -0.00001     0.00000
  n-local  -174.76891  -176.73696  -182.64196     0.12521     0.10012     0.07583
  augment    76.26479    76.44319    77.23762    -0.00000    -0.00000    -0.00000
  Kinetic  1755.02943  1758.78819  1769.37077    -0.44456    -0.65477    -0.22004
  Fock        0.00000     0.00000     0.00000     0.00000     0.00000     0.00000
  -------------------------------------------------------------------------------------
  Total       2.40072     2.28364     2.13741     0.00000     0.00000     0.00000
  in kB      23.27099    22.13613    20.71872     0.00000     0.00000     0.00000
  external pressure =       22.04 kB  Pullay stress =        0.00 kB


 VOLUME and BASIS-vectors are now :
 -----------------------------------------------------------------------------
  energy-cutoff  :      400.00
  volume of cell :      165.29
      direct lattice vectors                 reciprocal lattice vectors
     4.790529726  0.000000000  0.000000000     0.208745182  0.000000000  0.000000000
     0.000000000  4.926779738  0.000000000     0.000000000  0.202972338  0.000000000
     0.000000000  0.000000000  7.003090219     0.000000000  0.000000000  0.142794105

  length of vectors
     4.790529726  4.926779738  7.003090219     0.208745182  0.202972338  0.142794105


 FORCES acting on ions
    electron-ion (+dipol)            ewald-force                    non-local-force                 convergence-correction
 -----------------------------------------------------------------------------------------------
   0.341E+01 -.300E+01 0.166E+02   -.330E+01 0.709E+00 -.158E+02   -.107E+00 0.231E+01 -.796E+00   0.998E-04 -.170E-04 0.124E-03
   0.341E+01 0.300E+01 -.166E+02   -.330E+01 -.709E+00 0.158E+02   -.107E+00 -.231E+01 0.796E+00   0.998E-04 0.170E-04 -.124E-03
   -.341E+01 -.300E+01 -.166E+02   0.330E+01 0.709E+00 0.158E+02   0.107E+00 0.231E+01 0.796E+00   -.998E-04 -.171E-04 -.125E-03
   -.341E+01 0.300E+01 0.166E+02   0.330E+01 -.709E+00 -.158E+02   0.107E+00 -.231E+01 -.796E+00   -.998E-04 0.171E-04 0.124E-03
   -.341E+01 0.300E+01 -.166E+02   0.330E+01 -.709E+00 0.158E+02   0.107E+00 -.231E+01 0.796E+00   -.998E-04 0.171E-04 -.124E-03
   -.341E+01 -.300E+01 0.166E+02   0.330E+01 0.709E+00 -.158E+02   0.107E+00 0.231E+01 -.796E+00   -.998E-04 -.171E-04 0.124E-03
   0.341E+01 0.300E+01 0.166E+02   -.330E+01 -.709E+00 -.158E+02   -.107E+00 -.231E+01 -.796E+00   0.998E-04 0.170E-04 0.124E-03
   0.341E+01 -.300E+01 -.166E+02   -.330E+01 0.709E+00 0.158E+02   -.107E+00 0.231E+01 0.796E+00   0.998E-04 -.170E-04 -.125E-03
   0.678E+01 0.331E+01 -.186E+02   -.549E+01 -.261E+01 0.196E+02   -.129E+01 -.696E+00 -.996E+00   -.156E-03 0.303E-04 -.703E-03
   0.678E+01 -.331E+01 0.186E+02   -.549E+01 0.261E+01 -.196E+02   -.129E+01 0.696E+00 0.996E+00   -.156E-03 -.304E-04 0.703E-03
   -.678E+01 0.331E+01 0.186E+02   0.549E+01 -.261E+01 -.196E+02   0.129E+01 -.696E+00 0.996E+00   0.156E-03 0.301E-04 0.704E-03
   -.678E+01 -.331E+01 -.186E+02   0.549E+01 0.261E+01 0.196E+02   0.129E+01 0.696E+00 -.996E+00   0.156E-03 -.301E-04 -.704E-03
   -.678E+01 -.331E+01 0.186E+02   0.549E+01 0.261E+01 -.196E+02   0.129E+01 0.696E+00 0.996E+00   0.156E-03 -.301E-04 0.703E-03
   -.678E+01 0.331E+01 -.186E+02   0.549E+01 -.261E+01 0.196E+02   0.129E+01 -.696E+00 -.996E+00   0.156E-03 0.301E-04 -.703E-03
   0.678E+01 -.331E+01 -.186E+02   -.549E+01 0.261E+01 0.196E+02   -.129E+01 0.696E+00 -.996E+00   -.156E-03 -.304E-04 -.704E-03
   0.678E+01 0.331E+01 0.186E+02   -.549E+01 -.261E+01 -.196E+02   -.129E+01 -.696E+00 0.996E+00   -.156E-03 0.303E-04 0.704E-03
   -.201E+02 -.853E-05 -.612E-04   0.211E+02 -.938E-07 0.698E-05   -.922E+00 -.173E-17 0.694E-17   -.238E-03 -.171E-07 -.471E-06
   0.201E+02 -.104E-04 -.916E-04   -.211E+02 -.130E-05 -.158E-04   0.922E+00 0.173E-17 -.347E-17   0.238E-03 0.154E-07 0.495E-06
   0.201E+02 -.129E-04 -.943E-04   -.211E+02 -.309E-05 0.888E-05   0.922E+00 -.347E-17 -.347E-17   0.238E-03 0.155E-07 -.478E-06
   -.201E+02 -.161E-04 -.591E-04   0.211E+02 0.170E-05 -.139E-04   -.922E+00 -.173E-17 0.347E-17   -.238E-03 -.172E-07 0.488E-06
 -----------------------------------------------------------------------------------------------
   0.101E-02 -.750E-04 -.630E-03   0.213E-13 0.449E-14 0.213E-13   0.333E-15 0.772E-15 -.108E-15   0.119E-07 -.599E-09 -.152E-08
 
 
 POSITION                                       TOTAL-FORCE (eV/Angst)
 -----------------------------------------------------------------------------------
      1.20865      0.15468      2.73113         0.001377      0.017106     -0.012632
      1.20865      2.30871      4.27197         0.001377     -0.017106      0.012632
      1.18661      2.61807      0.77042        -0.001377      0.017106      0.012632
      1.18661      4.77210      6.23267        -0.001377     -0.017106     -0.012632
      3.58188      4.77210      4.27197        -0.001377     -0.017106      0.012632
      3.58188      2.61807      2.73113        -0.001377      0.017106     -0.012632
      3.60392      2.30871      6.23267         0.001377     -0.017106     -0.012632
      3.60392      0.15468      0.77042         0.001377      0.017106      0.012632
      0.51294      0.50445      4.58106         0.005741      0.006547      0.008838
      0.51294      1.95894      2.42204         0.005741     -0.006547     -0.008838
      1.88233      2.96784      5.92358        -0.005741      0.006547     -0.008838
      1.88233      4.42233      1.07951        -0.005741     -0.006547      0.008838
      4.27759      4.42233      2.42204        -0.005741     -0.006547     -0.008838
      4.27759      2.96784      4.58106        -0.005741      0.006547      0.008838
      2.90820      1.95894      1.07951         0.005741     -0.006547      0.008838
      2.90820      0.50445      5.92358         0.005741      0.006547     -0.008838
      0.24043      1.23169      0.00000         0.009092     -0.000000      0.000000
      2.15484      3.69508      3.50155        -0.009092     -0.000000      0.000000
      4.55010      3.69508      0.00000        -0.009092     -0.000000      0.000000
      2.63569      1.23169      3.50155         0.009092     -0.000000      0.000000
 -----------------------------------------------------------------------------------
    total drift:                                0.001014     -0.000075     -0.000630


--------------------------------------------------------------------------------------------------------



  FREE ENERGIE OF THE ION-ELECTRON SYSTEM (eV)
  ---------------------------------------------------
  free  energy   TOTEN  =      -147.86607783 eV

  energy  without entropy=     -147.86626638  energy(sigma->0) =     -147.86614068
 


--------------------------------------------------------------------------------------------------------


    POTLOK:  cpu time    0.1007: real time    0.1007


--------------------------------------------------------------------------------------------------------


 stress matrix after NEB project (eV)
      2.40072      0.00000      0.00000
      0.00000      2.28364      0.00000
      0.00000      0.00000      2.13741
  FORCES: max atom, RMS     0.021309    0.016116
  FORCE total and by dimension    0.072075    0.017106
  Stress total and by dimension    3.942966    2.400715
 writing wavefunctions
     LOOP+:  cpu time   39.5163: real time   42.2234
    4ORBIT:  cpu time    0.0000: real time    0.0000

 total amount of memory used by VASP MPI-rank0    72340. kBytes
=======================================================================

   base      :      30000. kBytes
   nonlr-proj:       2148. kBytes
   fftplans  :       5804. kBytes
   grid      :      10312. kBytes
   one-center:         61. kBytes
   wavefun   :      24015. kBytes
 
  
  
 General timing and accounting informations for this job:
 ========================================================
  
                  Total CPU time used (sec):       41.269
                            User time (sec):       41.015
                          System time (sec):        0.254
                         Elapsed time (sec):       44.613
  
                   Maximum memory used (kb):      117244.
                   Average memory used (kb):           0.
  
                          Minor page faults:        50011
                          Major page faults:            0
                 Voluntary context switches:          561
